c2v                                                                     
Freq      RB3LYP                                                      6-31G(d)            
Number of atoms                            I                3
Info1-9                                    I   N=           9
          11          11        1002           0           0         100
           6          18        -502
Full Title                                 C   N=           1
c2v         
Route                                      C   N=           4
# b3lyp/6-31G(d) Integral=Ultrafine Opt Freq    
Charge                                     I                0
Multiplicity                               I                1
Number of electrons                        I               10
Number of alpha electrons                  I                5
Number of beta electrons                   I                5
Number of basis functions                  I               19
Number of independent functions            I               19
Number of point charges in /Mol/           I                0
Number of translation vectors              I                0
Atomic numbers                             I   N=           3
           8           1           1
Nuclear charges                            R   N=           3
  8.00000000E+00  1.00000000E+00  1.00000000E+00
Current cartesian coordinates              R   N=           9
 -1.47084419E-16 -2.24767719E-16  2.26312695E-01  1.90502945E-16  1.43904623E+00
 -9.05250780E-01 -3.46095224E-16 -1.43904623E+00 -9.05250780E-01
Number of symbols in /Mol/                 I                0
Int Atom Types                             I   N=           3
           0           0           0
Force Field                                I                0
Atom Types                                 C   N=           3
                                    
MM charges                                 R   N=           3
  0.00000000E+00  0.00000000E+00  0.00000000E+00
Integer atomic weights                     I   N=           3
          16           1           1
Real atomic weights                        R   N=           3
  1.59949146E+01  1.00782504E+00  1.00782504E+00
Atom fragment info                         I   N=           3
           0           0           0
Atom residue num                           I   N=           3
           0           0           0
Nuclear spins                              I   N=           3
           0           1           1
Nuclear ZEff                               R   N=           3
 -5.60000000E+00 -1.00000000E+00 -1.00000000E+00
Nuclear ZNuc                               R   N=           3
  8.00000000E+00  1.00000000E+00  1.00000000E+00
Nuclear QMom                               R   N=           3
  0.00000000E+00  0.00000000E+00  0.00000000E+00
Nuclear GFac                               R   N=           3
  0.00000000E+00  2.79284600E+00  2.79284600E+00
MicOpt                                     I   N=           3
          -1          -1          -1
Number of residues                         I                0
Number of secondary structures             I                0
Redundant internal dimensions              I   N=           4
           3           2           1           0
Redundant internal coordinate indices      I   N=          12
           1           2           0           0           1           3
           0           0           2           1           3           0
Redundant internal coordinates             R   N=           3
  1.83065288E+00  1.83065288E+00  1.80889452E+00
ZRed-IntVec                                I   N=           3
           0           0           0
ZRed-FPVec                                 R   N=           3
  0.00000000E+00  0.00000000E+00  0.00000000E+00
ZRed-Constraint1                           R   N=           3
  1.83065288E+00  1.83065288E+00  1.80889452E+00
ZRed-Constraint2                           R   N=           3
  1.82420729E+00  1.82420729E+00  1.81059732E+00
SymInf integers                            I   N=          26
           2           4           1           1           1          -1
          -1           1          -1           1           1           1
          -1           1           0           0           0           0
           0           0           0           0           0           0
           0           0
RotTr to input orientation                 R   N=          12
 -1.00000000E+00 -3.05385437E-15 -1.34213554E-11 -3.05385437E-15  1.00000000E+00
 -2.93138969E-15  1.34213554E-11 -2.93138969E-15 -1.00000000E+00 -2.09773232E+00
  4.49797377E+00 -5.61150993E+00
Number of contracted shells                I                8
Number of primitive shells                 I               19
Pure/Cartesian d shells                    I                1
Pure/Cartesian f shells                    I                0
Highest angular momentum                   I                2
Largest degree of contraction              I                6
Shell types                                I   N=           8
           0          -1          -1           2           0           0
           0           0
Number of primitives per shell             I   N=           8
           6           3           1           1           3           1
           3           1
Shell to atom map                          I   N=           8
           1           1           1           1           2           2
           3           3
Primitive exponents                        R   N=          19
  5.48467166E+03  8.25234946E+02  1.88046958E+02  5.29645000E+01  1.68975704E+01
  5.79963534E+00  1.55396162E+01  3.59993359E+00  1.01376175E+00  2.70005823E-01
  8.00000000E-01  1.87311370E+01  2.82539436E+00  6.40121692E-01  1.61277759E-01
  1.87311370E+01  2.82539436E+00  6.40121692E-01  1.61277759E-01
Contraction coefficients                   R   N=          19
  1.83107443E-03  1.39501722E-02  6.84450781E-02  2.32714336E-01  4.70192898E-01
  3.58520853E-01 -1.10777550E-01 -1.48026263E-01  1.13076702E+00  1.00000000E+00
  1.00000000E+00  3.34946043E-02  2.34726953E-01  8.13757326E-01  1.00000000E+00
  3.34946043E-02  2.34726953E-01  8.13757326E-01  1.00000000E+00
P(S=P) Contraction coefficients            R   N=          19
  0.00000000E+00  0.00000000E+00  0.00000000E+00  0.00000000E+00  0.00000000E+00
  0.00000000E+00  7.08742682E-02  3.39752839E-01  7.27158577E-01  1.00000000E+00
  0.00000000E+00  0.00000000E+00  0.00000000E+00  0.00000000E+00  0.00000000E+00
  0.00000000E+00  0.00000000E+00  0.00000000E+00  0.00000000E+00
Coordinates of each shell                  R   N=          24
 -1.47084419E-16 -2.24767719E-16  2.26312695E-01 -1.47084419E-16 -2.24767719E-16
  2.26312695E-01 -1.47084419E-16 -2.24767719E-16  2.26312695E-01 -1.47084419E-16
 -2.24767719E-16  2.26312695E-01  1.90502945E-16  1.43904623E+00 -9.05250780E-01
  1.90502945E-16  1.43904623E+00 -9.05250780E-01 -3.46095224E-16 -1.43904623E+00
 -9.05250780E-01 -3.46095224E-16 -1.43904623E+00 -9.05250780E-01
Num ILSW                                   I              100
ILSW                                       I   N=         100
           0           1           0           0           2           0
           0           0           0           0         402          -1
           5           0           0           0           2           0
           0           0           1           0           1           0
           1           0           0           0           0           0
           0           0      100000           0          -1           0
           0           0           0           0           0           0
           0           0           0           1           0           0
           0 -2000000000           1           0           0           0
           0           0           4          52           0           0
           0           0           5           0           0           0
           0           0           0           0           0           1
           0           0           0           0           0           0
           0           0           0           0           0           0
           0           0           0           0           0           0
           0           0           0           0           0           0
           0           0           0           0
Num RLSW                                   I               52
RLSW                                       R   N=          52
  8.00000000E-01  7.20000000E-01  1.00000000E+00  8.10000000E-01  2.00000000E-01
  0.00000000E+00  0.00000000E+00  1.00000000E+00  0.00000000E+00  0.00000000E+00
  0.00000000E+00  0.00000000E+00  1.00000000E+00  0.00000000E+00  0.00000000E+00
  0.00000000E+00  0.00000000E+00  1.00000000E+00  0.00000000E+00  0.00000000E+00
  0.00000000E+00  0.00000000E+00  1.00000000E+00  0.00000000E+00  0.00000000E+00
  0.00000000E+00  0.00000000E+00  1.00000000E+00  0.00000000E+00  0.00000000E+00
  0.00000000E+00  0.00000000E+00  1.00000000E+00  0.00000000E+00  0.00000000E+00
  0.00000000E+00  0.00000000E+00  0.00000000E+00  1.00000000E+00  1.00000000E+00
  0.00000000E+00  1.00000000E+00  0.00000000E+00  0.00000000E+00  0.00000000E+00
  0.00000000E+00  0.00000000E+00  0.00000000E+00  0.00000000E+00  0.00000000E+00
  0.00000000E+00  0.00000000E+00
MxBond                                     I                2
NBond                                      I   N=           3
           2           1           1
IBond                                      I   N=           6
           2           3           1           0           1           0
RBond                                      R   N=           6
  1.00000000E+00  1.00000000E+00  1.00000000E+00  0.00000000E+00  1.00000000E+00
  0.00000000E+00
Virial Ratio                               R      2.007774410509684E+00
SCF Energy                                 R     -7.640895397698259E+01
Total Energy                               R     -7.640895397698259E+01
RMS Force                                  R      1.104829025135220E-05
NImag                                      I                0
Job Status                                 I                1
Nuclear derivative order                   I                2
Thermal Energy                             R     -7.638495690317403E+01
Thermal Enthalpy                           R     -7.638401271836038E+01
Thermal Free Energy                        R     -7.640545877469869E+01
External E-field                           R   N=          35
  0.00000000E+00  0.00000000E+00  0.00000000E+00  0.00000000E+00  0.00000000E+00
  0.00000000E+00  0.00000000E+00  0.00000000E+00  0.00000000E+00  0.00000000E+00
  0.00000000E+00  0.00000000E+00  0.00000000E+00  0.00000000E+00  0.00000000E+00
  0.00000000E+00  0.00000000E+00  0.00000000E+00  0.00000000E+00  0.00000000E+00
  0.00000000E+00  0.00000000E+00  0.00000000E+00  0.00000000E+00  0.00000000E+00
  0.00000000E+00  0.00000000E+00  0.00000000E+00  0.00000000E+00  0.00000000E+00
  0.00000000E+00  0.00000000E+00  0.00000000E+00  0.00000000E+00  0.00000000E+00
IOpCl                                      I                0
IROHF                                      I                0
Alpha Orbital Energies                     R   N=          19
 -1.91381776E+01 -9.97883157E-01 -5.17111359E-01 -3.72236357E-01 -2.91191693E-01
  6.25933507E-02  1.48110821E-01  7.72414819E-01  8.60938183E-01  8.90777827E-01
  8.95099303E-01  1.06577181E+00  1.19347244E+00  1.72907341E+00  1.74638608E+00
  1.77979710E+00  2.28055232E+00  2.57706108E+00  3.55187771E+00
Alpha MO coefficients                      R   N=         361
  9.92859974E-01  2.62242601E-02  0.00000000E+00  0.00000000E+00 -1.10148539E-03
  1.01095545E-02  0.00000000E+00  0.00000000E+00 -1.53301504E-06 -7.72420550E-03
 -7.76717986E-03 -7.74625477E-03  0.00000000E+00  0.00000000E+00  0.00000000E+00
  3.70003260E-04 -1.03337556E-03  3.70003260E-04 -1.03337556E-03 -2.09500627E-01
  4.69211608E-01  0.00000000E+00  0.00000000E+00 -1.27695898E-01  4.39527266E-01
  0.00000000E+00  0.00000000E+00 -6.06602973E-02 -1.09356741E-02  1.87765285E-02
  1.60736616E-02  0.00000000E+00  0.00000000E+00  0.00000000E+00  1.39139130E-01
  6.45170658E-03  1.39139130E-01  6.45170658E-03  0.00000000E+00  0.00000000E+00
  0.00000000E+00  5.17439569E-01  0.00000000E+00  0.00000000E+00  0.00000000E+00
  2.69776079E-01  0.00000000E+00  0.00000000E+00  0.00000000E+00  0.00000000E+00
  0.00000000E+00  0.00000000E+00 -4.12739053E-02  2.37430319E-01  1.41970831E-01
 -2.37430319E-01 -1.41970831E-01 -8.81043302E-02  1.77272638E-01  0.00000000E+00
  0.00000000E+00  5.51796891E-01  4.10451853E-01  0.00000000E+00  0.00000000E+00
  3.72120480E-01 -2.65077469E-04  8.82298836E-04 -5.24244276E-02  0.00000000E+00
  0.00000000E+00  0.00000000E+00 -1.43745458E-01 -1.14289691E-01 -1.43745458E-01
 -1.14289691E-01  0.00000000E+00  0.00000000E+00  6.44581446E-01  0.00000000E+00
  0.00000000E+00  0.00000000E+00  5.06043828E-01  0.00000000E+00  0.00000000E+00
  0.00000000E+00  0.00000000E+00  0.00000000E+00  0.00000000E+00 -3.54385109E-02
  0.00000000E+00  0.00000000E+00  0.00000000E+00  0.00000000E+00  0.00000000E+00
 -1.00636945E-01  1.19294421E-01  0.00000000E+00  0.00000000E+00 -2.80705236E-01
  1.25771702E+00  0.00000000E+00  0.00000000E+00 -4.77506285E-01 -5.80381163E-02
 -4.50854111E-02 -2.73039486E-02  0.00000000E+00  0.00000000E+00  0.00000000E+00
 -9.62756179E-02 -9.69015085E-01 -9.62756179E-02 -9.69015085E-01  0.00000000E+00
  0.00000000E+00  0.00000000E+00 -4.13467616E-01  0.00000000E+00  0.00000000E+00
  0.00000000E+00 -7.58771659E-01  0.00000000E+00  0.00000000E+00  0.00000000E+00
  0.00000000E+00  0.00000000E+00  0.00000000E+00  1.84330944E-02  1.07375340E-01
  1.27773795E+00 -1.07375340E-01 -1.27773795E+00  0.00000000E+00  0.00000000E+00
  0.00000000E+00 -1.72180843E-01  0.00000000E+00  0.00000000E+00  0.00000000E+00
 -4.30387949E-01  0.00000000E+00  0.00000000E+00  0.00000000E+00  0.00000000E+00
  0.00000000E+00  0.00000000E+00 -1.96011891E-01  8.40199412E-01 -6.55433077E-01
 -8.40199412E-01  6.55433077E-01  3.77606189E-02 -1.35181461E-01  0.00000000E+00
  0.00000000E+00  7.08212631E-01  1.34881927E-01  0.00000000E+00  0.00000000E+00
 -3.83790175E-01 -1.19136908E-01  1.53525218E-01  1.19111559E-02  0.00000000E+00
  0.00000000E+00  0.00000000E+00  7.11461448E-01 -5.51921519E-01  7.11461448E-01
 -5.51921519E-01  0.00000000E+00  0.00000000E+00 -9.59432461E-01  0.00000000E+00
  0.00000000E+00  0.00000000E+00  1.03862455E+00  0.00000000E+00  0.00000000E+00
  0.00000000E+00  0.00000000E+00  0.00000000E+00  0.00000000E+00 -1.64072101E-02
  0.00000000E+00  0.00000000E+00  0.00000000E+00  0.00000000E+00  0.00000000E+00
  1.05342206E-02 -8.36314400E-01  0.00000000E+00  0.00000000E+00 -5.57918604E-01
  1.41044150E+00  0.00000000E+00  0.00000000E+00  8.27217811E-01 -3.27589898E-01
 -1.57047390E-01 -2.76927124E-01  0.00000000E+00  0.00000000E+00  0.00000000E+00
  4.68195618E-01 -3.73792881E-01  4.68195618E-01 -3.73792881E-01  0.00000000E+00
  0.00000000E+00  0.00000000E+00 -9.89227273E-01  0.00000000E+00  0.00000000E+00
  0.00000000E+00  1.62801950E+00  0.00000000E+00  0.00000000E+00  0.00000000E+00
  0.00000000E+00  0.00000000E+00  0.00000000E+00  1.60146731E-02  1.94180786E-02
 -9.26558222E-01 -1.94180786E-02  9.26558222E-01 -8.19391525E-02 -1.45735035E+00
  0.00000000E+00  0.00000000E+00  4.02565085E-01  3.59649765E+00  0.00000000E+00
  0.00000000E+00 -1.10579099E+00 -2.50364277E-01 -6.57519325E-01 -3.93296104E-01
  0.00000000E+00  0.00000000E+00  0.00000000E+00 -3.52259428E-01 -7.73067812E-01
 -3.52259428E-01 -7.73067812E-01  7.43307426E-03  9.01076647E-02  0.00000000E+00
  0.00000000E+00 -9.10915982E-03 -2.52374845E-01  0.00000000E+00  0.00000000E+00
  1.43555685E-01 -3.43750862E-01 -5.96060552E-01  1.00692222E+00  0.00000000E+00
  0.00000000E+00  0.00000000E+00  8.17030015E-02  4.22610213E-02  8.17030015E-02
  4.22610213E-02  0.00000000E+00  0.00000000E+00  0.00000000E+00  0.00000000E+00
  0.00000000E+00  0.00000000E+00  0.00000000E+00  0.00000000E+00  0.00000000E+00
  0.00000000E+00  0.00000000E+00  0.00000000E+00  1.00000000E+00  0.00000000E+00
  0.00000000E+00  0.00000000E+00  0.00000000E+00  0.00000000E+00  0.00000000E+00
  0.00000000E+00  0.00000000E+00  7.10681799E-03  0.00000000E+00  0.00000000E+00
  0.00000000E+00  3.50010709E-02  0.00000000E+00  0.00000000E+00  0.00000000E+00
  0.00000000E+00  0.00000000E+00  0.00000000E+00  9.99237167E-01  0.00000000E+00
  0.00000000E+00  0.00000000E+00  0.00000000E+00  0.00000000E+00 -5.16364063E-02
 -5.14883355E-01  0.00000000E+00  0.00000000E+00  6.29776999E-02  1.53882052E+00
  0.00000000E+00  0.00000000E+00 -7.39143894E-01 -1.13119718E+00  7.36051996E-01
  7.08963096E-02  0.00000000E+00  0.00000000E+00  0.00000000E+00 -8.12319846E-01
 -1.41413239E-01 -8.12319846E-01 -1.41413239E-01  0.00000000E+00  0.00000000E+00
  0.00000000E+00  3.69378249E-02  0.00000000E+00  0.00000000E+00  0.00000000E+00
 -8.42230067E-01  0.00000000E+00  0.00000000E+00  0.00000000E+00  0.00000000E+00
  0.00000000E+00  0.00000000E+00  1.27207984E+00  9.23404768E-01 -5.02467286E-02
 -9.23404768E-01  5.02467286E-02 -4.67944142E-01  2.86724742E-01  0.00000000E+00
  0.00000000E+00  1.16614470E-01  3.68943795E+00  0.00000000E+00  0.00000000E+00
 -3.34007681E-01 -1.57874483E+00 -1.52609342E+00 -1.54961190E+00  0.00000000E+00
  0.00000000E+00  0.00000000E+00  1.15798843E-01 -5.54499434E-01  1.15798843E-01
 -5.54499434E-01
Orthonormal basis                          R   N=         361
  3.17354995E-02  1.59015474E-01  0.00000000E+00  0.00000000E+00 -2.64536220E-02
  2.05159535E-01  0.00000000E+00  0.00000000E+00 -5.29744246E-02  1.36172452E-01
  1.53728899E-01  1.47027831E-01  0.00000000E+00  0.00000000E+00  0.00000000E+00
  1.16799140E-01  1.61200378E-01  1.16799140E-01  1.61200378E-01  6.47111866E-02
  1.82320705E-01  0.00000000E+00  0.00000000E+00  3.93766571E-01  1.35310281E-01
  0.00000000E+00  0.00000000E+00  4.73749011E-01  1.55325427E-01  7.45260906E-02
  1.05366150E-01  0.00000000E+00  0.00000000E+00  0.00000000E+00 -1.74734384E-01
 -9.48337709E-02 -1.74734384E-01 -9.48337709E-02  9.15296401E-01  2.13560366E-01
  0.00000000E+00  0.00000000E+00 -1.92281401E-01  5.08620225E-03  0.00000000E+00
  0.00000000E+00 -8.52686520E-02 -1.75141716E-02 -1.20561199E-01 -8.12294843E-02
  0.00000000E+00  0.00000000E+00  0.00000000E+00 -6.37678984E-02 -8.03227558E-02
 -6.37678984E-02 -8.03227558E-02 -2.83761708E-01  2.84646682E-01  0.00000000E+00
  0.00000000E+00 -5.93018722E-01  6.99136560E-02  0.00000000E+00  0.00000000E+00
 -5.13968745E-02  6.27465002E-01 -2.68526661E-01  7.34617457E-02  0.00000000E+00
  0.00000000E+00  0.00000000E+00 -2.67594845E-01 -1.90650730E-01 -2.67594845E-01
 -1.90650730E-01 -1.15424716E-01  3.21076447E-01  0.00000000E+00  0.00000000E+00
 -4.81944362E-01 -9.23596103E-03  0.00000000E+00  0.00000000E+00  2.34948580E-01
 -5.32993605E-01  6.56170462E-01  2.02281948E-01  0.00000000E+00  0.00000000E+00
  0.00000000E+00  9.36938508E-02 -3.89956407E-01  9.36938508E-02 -3.89956407E-01
 -3.54335455E-16  1.10555766E-15  0.00000000E+00  0.00000000E+00 -2.14961974E-15
  2.17229653E-16  0.00000000E+00  0.00000000E+00  1.11495721E-15 -3.78174245E-01
 -6.12622414E-01  9.90796659E-01  0.00000000E+00  0.00000000E+00  0.00000000E+00
  2.69474105E-16 -1.37392043E-15  2.69474105E-16 -1.37392043E-15  1.70296895E-01
 -7.80197591E-01  0.00000000E+00  0.00000000E+00 -7.22974952E-01  2.24828699E-01
  0.00000000E+00  0.00000000E+00  8.99345743E-01 -4.48766518E-02  3.08883906E-02
  1.96985578E-03  0.00000000E+00  0.00000000E+00  0.00000000E+00 -1.13011694E-01
  3.98642173E-01 -1.13011694E-01  3.98642173E-01  2.67801076E-01 -8.25331965E-01
  0.00000000E+00  0.00000000E+00  1.04960622E-01 -2.02479361E-03  0.00000000E+00
  0.00000000E+00  1.25026030E-01  8.21501762E-01  5.19250447E-02  3.45662505E-01
  0.00000000E+00  0.00000000E+00  0.00000000E+00  7.42558000E-01 -6.56244241E-01
  7.42558000E-01 -6.56244241E-01 -2.58837067E-01  9.62568646E-01  0.00000000E+00
  0.00000000E+00 -1.85862523E-01 -6.21171417E-02  0.00000000E+00  0.00000000E+00
  9.55874267E-01 -2.22107510E-01 -1.12565237E+00 -7.80781006E-01  0.00000000E+00
  0.00000000E+00  0.00000000E+00  9.10344267E-01  5.90786388E-02  9.10344267E-01
  5.90786388E-02 -4.15902545E-01 -9.79202240E-01  0.00000000E+00  0.00000000E+00
  2.17273409E-01  5.72797940E+00  0.00000000E+00  0.00000000E+00 -1.03562495E+00
 -1.57732335E+00 -1.23150152E+00 -1.36349723E+00  0.00000000E+00  0.00000000E+00
  0.00000000E+00 -2.39153435E-01 -1.22491383E+00 -2.39153435E-01 -1.22491383E+00
  0.00000000E+00  0.00000000E+00  0.00000000E+00  0.00000000E+00  0.00000000E+00
  0.00000000E+00  0.00000000E+00  0.00000000E+00  0.00000000E+00  0.00000000E+00
  0.00000000E+00  0.00000000E+00  1.00000000E+00  0.00000000E+00  0.00000000E+00
  0.00000000E+00  0.00000000E+00  0.00000000E+00  0.00000000E+00  0.00000000E+00
  0.00000000E+00  5.77057836E-01  0.00000000E+00  0.00000000E+00  0.00000000E+00
  5.77057836E-01  0.00000000E+00  0.00000000E+00  0.00000000E+00  0.00000000E+00
  0.00000000E+00  0.00000000E+00  0.00000000E+00  0.00000000E+00  0.00000000E+00
  0.00000000E+00  0.00000000E+00  0.00000000E+00  0.00000000E+00  0.00000000E+00
  0.00000000E+00  0.00000000E+00  0.00000000E+00  0.00000000E+00  0.00000000E+00
  0.00000000E+00  0.00000000E+00  0.00000000E+00  0.00000000E+00  0.00000000E+00
  0.00000000E+00  1.00000000E+00  0.00000000E+00  0.00000000E+00  0.00000000E+00
  0.00000000E+00  0.00000000E+00  0.00000000E+00  0.00000000E+00  1.00152416E+00
  0.00000000E+00  0.00000000E+00  0.00000000E+00 -1.00152416E+00  0.00000000E+00
  0.00000000E+00  0.00000000E+00  0.00000000E+00  0.00000000E+00  0.00000000E+00
  0.00000000E+00  0.00000000E+00  0.00000000E+00  0.00000000E+00  0.00000000E+00
  0.00000000E+00  0.00000000E+00  0.00000000E+00  0.00000000E+00  2.67510754E-01
  0.00000000E+00  0.00000000E+00  0.00000000E+00  3.85003181E-01  0.00000000E+00
  0.00000000E+00  0.00000000E+00  0.00000000E+00  0.00000000E+00  0.00000000E+00
 -1.46707544E-01  2.62987406E-01  1.65933578E-01 -2.62987406E-01 -1.65933578E-01
  0.00000000E+00  0.00000000E+00  0.00000000E+00  3.74224314E-01  0.00000000E+00
  0.00000000E+00  0.00000000E+00  2.61697944E-01  0.00000000E+00  0.00000000E+00
  0.00000000E+00  0.00000000E+00  0.00000000E+00  0.00000000E+00  7.69879725E-01
 -1.82854779E-01  2.48912924E-02  1.82854779E-01 -2.48912924E-02  0.00000000E+00
  0.00000000E+00  0.00000000E+00  9.74483987E-01  0.00000000E+00  0.00000000E+00
  0.00000000E+00 -3.61078142E-01  0.00000000E+00  0.00000000E+00  0.00000000E+00
  0.00000000E+00  0.00000000E+00  0.00000000E+00 -3.95940967E-01 -1.38569890E-01
 -3.22032373E-01  1.38569890E-01  3.22032373E-01  0.00000000E+00  0.00000000E+00
  0.00000000E+00 -1.78947192E-02  0.00000000E+00  0.00000000E+00  0.00000000E+00
 -7.23289495E-01  0.00000000E+00  0.00000000E+00  0.00000000E+00  0.00000000E+00
  0.00000000E+00  0.00000000E+00  8.74034269E-01  1.21150477E+00 -6.80205264E-01
 -1.21150477E+00  6.80205264E-01  0.00000000E+00  0.00000000E+00  0.00000000E+00
  5.35476721E-01  0.00000000E+00  0.00000000E+00  0.00000000E+00 -1.82299423E+00
  0.00000000E+00  0.00000000E+00  0.00000000E+00  0.00000000E+00  0.00000000E+00
  0.00000000E+00  3.52085947E-01  1.93254836E-01  1.53259903E+00 -1.93254836E-01
 -1.53259903E+00
Total SCF Density                          R   N=         190
  2.07484763E+00 -1.75763190E-01  5.04545666E-01  0.00000000E+00  0.00000000E+00
  8.30970480E-01  0.00000000E+00  0.00000000E+00 -1.29422492E-31  5.35487416E-01
 -4.59138911E-02  7.57464147E-02  0.00000000E+00 -1.26528266E-31  6.41574529E-01
 -2.36412903E-01  5.58516587E-01  0.00000000E+00 -6.71908694E-32  3.40698184E-01
  7.23514288E-01  0.00000000E+00  0.00000000E+00  6.52372924E-01  1.09392821E-31
  6.74286344E-48  0.00000000E+00  5.12160712E-01  0.00000000E+00  0.00000000E+00
 -6.77927340E-32  2.79185636E-01  0.00000000E+00  0.00000000E+00 -3.85185989E-32
  1.45558265E-01 -4.01571547E-02  7.50084465E-02  0.00000000E+00 -8.40456339E-32
  4.26161993E-01  2.52151340E-01  0.00000000E+00 -5.60695995E-32  2.84306646E-01
 -1.07093388E-02 -1.07613956E-02  0.00000000E+00 -4.96461683E-34  2.51735980E-03
 -9.98683354E-03  0.00000000E+00 -2.22747629E-34  1.12946466E-03  3.58645171E-04
 -2.34463017E-02  1.75257680E-02 -8.16618826E-64  1.53406860E-32 -3.80456094E-03
  1.70728294E-02 -4.93769523E-64  7.92668890E-33 -1.62131285E-03 -2.91145162E-04
  8.27331111E-04 -1.28791388E-02 -3.90921556E-03 -1.78680483E-48  1.22161597E-32
 -6.19432888E-02 -2.90624042E-02 -9.31581634E-49  8.07920745E-33 -4.09664487E-02
 -2.04092254E-04  6.31440214E-04  6.13337533E-03  4.05856703E-33 -6.67161703E-33
  9.00997743E-33 -5.37262322E-64  1.47331543E-33 -6.44922980E-33  7.07349475E-33
 -2.63148893E-64  6.25464097E-34  1.45941623E-34 -2.71034442E-34 -2.05013232E-34
  1.76798343E-35 -6.53875418E-49  4.88762324E-49 -4.56860132E-02  2.14047713E-33
 -1.13771465E-48  4.76130675E-49 -3.58668794E-02 -1.11193617E-33 -5.83064423E-49
 -8.11951783E-51  2.30727850E-50  1.60135392E-49 -4.95360494E-34  2.51177611E-03
  2.93289581E-33  8.90224268E-34  2.00148511E-33 -4.27135036E-02  1.41060062E-32
  6.61822227E-33 -1.05633936E-33 -2.22694246E-02  9.32906519E-33  4.64768121E-35
 -1.30760471E-33 -1.39672000E-33  3.60177688E-50 -3.45062448E-34  3.40707051E-03
 -3.22355525E-02  7.96265227E-02 -3.08148791E-33  2.45711685E-01 -1.94172401E-01
  4.31718466E-03 -2.31111593E-33  1.28106041E-01 -1.23861701E-01 -2.97266896E-03
  4.96569900E-03  1.95387650E-02 -1.83469468E-33  4.33655107E-33 -1.95993530E-02
  1.92791495E-01  1.53835658E-02 -3.45206379E-02 -1.54074396E-33  1.46922651E-01
 -1.27774829E-01 -8.81703230E-02 -1.15555797E-33  7.66006680E-02 -8.58417911E-02
 -6.45522668E-05  5.66588093E-05  1.22065580E-02 -2.77984043E-35  2.61305000E-33
 -1.17193812E-02  1.02068212E-01  6.65210854E-02 -3.22355525E-02  7.96265227E-02
  3.08148791E-33 -2.45711685E-01 -1.94172401E-01  4.31718466E-03  2.31111593E-33
 -1.28106041E-01 -1.23861701E-01 -2.97266896E-03  4.96569900E-03  1.95387650E-02
 -1.83469468E-33 -4.33655107E-33  1.95993530E-02 -3.27011311E-02 -3.27645064E-02
  1.92791495E-01  1.53835658E-02 -3.45206379E-02  1.54074396E-33 -1.46922651E-01
 -1.27774829E-01 -8.81703230E-02  1.15555797E-33 -7.66006680E-02 -8.58417911E-02
 -6.45522668E-05  5.66588093E-05  1.22065580E-02 -2.77984043E-35 -2.61305000E-33
  1.17193812E-02 -3.27645064E-02 -1.41017818E-02  1.02068212E-01  6.65210854E-02
Grdnt Energy                               R     -7.640895397698259E+01
Grdnt NVar                                 I                3
Grdnt IGetFC                               I                4
Internal Forces                            R   N=           3
 -7.39874513E-07 -7.39874514E-07  2.80857440E-05
Internal Force Constants                   R   N=           6
  5.15645792E-01 -8.56056132E-03  5.15645792E-01  3.09998270E-02  3.09998270E-02
  1.77839911E-01
Mulliken Charges                           R   N=           3
 -7.74299509E-01  3.87149755E-01  3.87149755E-01
Optimization MaxStp                        I                2
Optimization MaxJob                        I                1
Optimization Job offset                    I                0
Optimization Num results per geometry      I                2
Optimization Num geometry variables        I                9
Optimization Reference Energy              R     -7.600000000000000E+01
Opt point       1 Results for each geome   R   N=           2
 -4.08953977E-01  0.00000000E+00
Opt point       1 Geometries               R   N=           9
 -1.47084419E-16 -2.24767719E-16  2.26312695E-01  1.90502945E-16  1.43904623E+00
 -9.05250780E-01 -3.46095224E-16 -1.43904623E+00 -9.05250780E-01
Opt point       1 Gradient at each geome   R   N=           9
 -5.30118152E-16  5.66820896E-16  2.50347387E-05  1.40140315E-15 -8.90155177E-06
 -1.25173693E-05 -8.71284997E-16  8.90155177E-06 -1.25173693E-05
Optimization Number of geometries          I   N=           1
           1
ONIOM Charges                              I   N=          16
           0           0           0           0           0           0
           0           0           0           0           0           0
           0           0           0           0
ONIOM Multiplicities                       I   N=          16
           1           0           0           0           0           0
           0           0           0           0           0           0
           0           0           0           0
Atom Layers                                I   N=           3
           1           1           1
Atom Modifiers                             I   N=           3
           0           0           0
Int Atom Modified Types                    I   N=           3
           0           0           0
Force Field                                I                0
Atom Modified Types                        C   N=           3
                                    
Link Atoms                                 I   N=           3
           0           0           0
Atom Modified MM Charges                   R   N=           3
  0.00000000E+00  0.00000000E+00  0.00000000E+00
Link Distances                             R   N=          12
  0.00000000E+00  0.00000000E+00  0.00000000E+00  0.00000000E+00  0.00000000E+00
  0.00000000E+00  0.00000000E+00  0.00000000E+00  0.00000000E+00  0.00000000E+00
  0.00000000E+00  0.00000000E+00
Cartesian Gradient                         R   N=           9
 -5.30118152E-16  5.66820896E-16  2.50347387E-05  1.40140315E-15 -8.90155177E-06
 -1.25173693E-05 -8.71284997E-16  8.90155177E-06 -1.25173693E-05
Cartesian Force Constants                  R   N=          45
  5.40969156E-05 -1.72609370E-15  6.47868623E-01  4.29702698E-16 -1.44895876E-12