
                                 *****************
                                 * O   R   C   A *
                                 *****************

                                            #,                                       
                                            ###                                      
                                            ####                                     
                                            #####                                    
                                            ######                                   
                                           ########,                                 
                                     ,,################,,,,,                         
                               ,,#################################,,                 
                          ,,##########################################,,             
                       ,#########################################, ''#####,          
                    ,#############################################,,   '####,        
                  ,##################################################,,,,####,       
                ,###########''''           ''''###############################       
              ,#####''   ,,,,##########,,,,          '''####'''          '####       
            ,##' ,,,,###########################,,,                        '##       
           ' ,,###''''                  '''############,,,                           
         ,,##''                                '''############,,,,        ,,,,,,###''
      ,#''                                            '''#######################'''  
     '                                                          ''''####''''         
             ,#######,   #######,   ,#######,      ##                                
            ,#'     '#,  ##    ##  ,#'     '#,    #''#        ,####,   ,####,        
            ##       ##  ##   ,#'  ##            #'  '#       #'       #'  '#        
            ##       ##  #######   ##           ,######,      #####,   #    #        
            '#,     ,#'  ##    ##  '#,     ,#' ,#      #,     #,   #   #,  ,#        
             '#######'   ##     ##  '#######'  #'      '#     '####' # '####'        



                #########################################################
                #                        -***-                          #
                #          Department of theory and spectroscopy        #
                #                                                       #
                #                      Frank Neese                      #
                #                                                       #
                #     Directorship, Architecture, Infrastructure        #
                #                    SHARK, DRIVERS                     #
                #        Core code/Algorithms in most modules           #
                #                                                       #
                #        Max Planck Institute fuer Kohlenforschung      #
                #                Kaiser Wilhelm Platz 1                 #
                #                 D-45470 Muelheim/Ruhr                 #
                #                      Germany                          #
                #                                                       #
                #                  All rights reserved                  #
                #                        -***-                          #
                #########################################################


                         Program Version 6.0.1  -  RELEASE   -


 With contributions from (in alphabetic order):
[Max-Planck-Institut fuer Kohlenforschung]                               
  Daniel Aravena         : Magnetic Suceptibility                        
  Michael Atanasov       : Ab Initio Ligand Field Theory (pilot matlab implementation)
  Alexander A. Auer      : GIAO ZORA, VPT2 properties, NMR spectrum      
  Ute Becker             : All parallelization in ORCA, NUMFREQ, NUMCALC 
  Giovanni Bistoni       : ED, misc. LED, open-shell LED, HFLD           
  Martin Brehm           : Molecular dynamics                            
  Dmytro Bykov           : pre 5.0 version of the SCF Hessian            
  Marcos Casanova-Páez   : Triplet and SCS-CIS(D). UHF-(DLPNO)-IP/EA/STEOM-CCSD. UHF-CVS-IP/STEOM-CCSD   
  Vijay G. Chilkuri      : MRCI spin determinant printing, contributions to CSF-ICE 
  Pauline Colinet        : FMM embedding                                 
  Dipayan Datta          : RHF DLPNO-CCSD density                        
  Achintya Kumar Dutta   : EOM-CC, STEOM-CC                              
  Nicolas Foglia         : Exact transition moments, OPA infrastructure, MCD improvements    
  Dmitry Ganyushin       : Spin-Orbit,Spin-Spin,Magnetic field MRCI      
  Miquel Garcia-Rates    : C-PCM and meta-GGA Hessian, CCSD/C-PCM, Gaussian charge scheme 
  Tiago L. C. Gouveia    : GS-ROHF, GS-ROCIS                             
  Yang Guo               : DLPNO-NEVPT2, F12-NEVPT2, CIM, IAO-localization        
  Andreas Hansen         : Spin unrestricted coupled pair/coupled cluster methods 
  Ingolf Harden          : AUTO-CI MPn and infrastructure                
  Benjamin Helmich-Paris : MC-RPA, TRAH-(SCF,CASSCF), AVAS, COSX integrals, SCF dyn. polar. 
  Lee Huntington         : MR-EOM, pCC                                   
  Robert Izsak           : Overlap fitted RIJCOSX, COSX-SCS-MP3, EOM     
  Riya Kayal             : Wick's Theorem for AUTO-CI, AUTO-CI UHF-CCSDT 
  Emily Kempfer          : AUTO-CI, RHF CISDT and CCSDT                  
  Christian Kollmar      : KDIIS, OOCD, Brueckner-CCSD(T), CCSD density, CASPT2, CASPT2-K, improved NEVPT2 
  Axel Koslowski         : Symmetry handling                             
  Simone Kossmann        : meta-GGA functionals, TD-DFT gradient, OOMP2, (MP2 Hessian; deprecated post 5.0) 
  Lucas Lang             : DCDCAS                                        
  Marvin Lechner         : AUTO-CI (C++ implementation), FIC-MRCC        
  Spencer Leger          : CASSCF response                               
  Dagmar Lenk            : GEPOL surface, SMD, ORCA-2-JSON               
  Dimitrios Liakos       : Extrapolation schemes; Compound Job, initial MDCI parallelization 
  Dimitrios Manganas     : Further ROCIS development; embedding schemes. LFT, Crystal Embedding 
  Dimitrios Pantazis     : SARC Basis sets                               
  Anastasios Papadopoulos: AUTO-CI, single reference methods and gradients 
  Taras Petrenko         : pre 6.0 DFT Hessian and TD-DFT gradient, (ASA, deprecated), ECA, 1-Electron XAS/XES, NRVS 
  Peter Pinski           : DLPNO-MP2, DLPNO-MP2 Gradient                 
  Christoph Reimann      : Effective Core Potentials                     
  Marius Retegan         : Local ZFS, SOC                                
  Christoph Riplinger    : Optimizer, TS searches, QM/MM, DLPNO-CCSD(T), (RO)-DLPNO pert. Triples 
  Michael Roemelt        : Original ROCIS implementation                 
  Masaaki Saitow         : Open-shell DLPNO-CCSD energy and density      
  Barbara Sandhoefer     : DKH picture change effects                    
  Kantharuban Sivalingam : CASSCF convergence/infrastructure, NEVPT2 and variants, FIC-MRCI 
  Bernardo de Souza      : ESD, SOC TD-DFT                               
  Georgi L. Stoychev     : AutoAux, RI-MP2 NMR, DLPNO-MP2 response, X2C  
  Van Anh Tran           : RI-MP2 g-tensors                              
  Willem Van den Heuvel  : Paramagnetic NMR                              
  Zikuan Wang            : NOTCH, Electric field optimization            
  Frank Wennmohs         : Technical directorship and infrastructure     
  Hang Xu                : AUTO-CI-Response properties                   
                                                                         
[FACCTs GmbH]                                                            
  Markus Bursch, Miquel Garcia-Rates, Christoph Riplinger, Bernardo de Souza, Georgi L. Stoychev 
                                                                 
  APM, Basis sets (HGBS, AHGBS, def-TZVP (Ac-Lr), def2-XVPD (La-Lu)), CI-OPT, improved COSX, DLPNO-Multilevel,           
  DOCKER, DRACO, updates on ESD, GOAT, IRC, LR-CPCM, MBIS, meta-GGA TD-DFT gradient, ML-optimized integration grids, 
  MM, NACMEs, nearIR, NEB, NEB-TS, NL-DFT gradient (VV10), 2- and 3-layer-ONIOM, interface openCOSMO-RS, QMMM,   
  Crystal-QMMM, SF, symmetry and pop. for TD-DFT, r2SCAN hybrids, SOLVATOR                                   
                                                                         
[Other institutions]                                                     
  V. Asgeirsson          : NEB                                           
  Christoph Bannwarth    : sTDA-DFT, sTD-DFT, PBEh-3c, B97-3c, D3        
  Sebastian Ehlert       : rSCAN, r2SCAN, r2SCAN-3c, D4, dhf basis sets  
  Marvin Friede          : D4 for Fr, Ra, Ac-Lr                          
  Lars Goerigk           : TD-DFT with DH, B97 family of functionals     
  Stefan Grimme          : VdW corrections, initial TS optimization, DFT functionals, gCP, sTDA/sTD-DF 
  Waldemar Hujo          : DFT-NL                                        
  H. Jonsson             : NEB                                           
  Holger Kruse           : gCP                                           
  Marcel Mueller         : wB97X-3c, vDZP basis set                      
  Hagen Neugebauer       : wr2SCAN                                       
  Tobias Risthaus        : range-separated hybrid DFT                    
  Lukas Wittmann         : regularized MP2, r2SCAN double-hybrids, wr2SCAN        
                                                                         
We gratefully acknowledge several colleagues who have allowed us to      
interface, adapt or use parts of their codes:                            
  Ed Valeev, F. Pavosevic, A. Kumar             : LibInt (2-el integral package), F12 methods 
  Garnet Chan, S. Sharma, J. Yang, R. Olivares  : DMRG                   
  Ulf Ekstrom                                   : XCFun DFT Library      
  Mihaly Kallay                                 : mrcc  (arbitrary order and MRCC methods)
  Frank Weinhold                                : gennbo (NPA and NBO analysis)           
  Simon Mueller                                 : openCOSMO-RS                            
  Christopher J. Cramer and Donald G. Truhlar   : smd solvation model                     
  S Lehtola, MJT Oliveira, MAL Marques          : LibXC Library                           
  Liviu Ungur et al                             : ANISO software                          


 Your calculation uses the libint2 library for the computation of 2-el integrals
 For citations please refer to: http://libint.valeyev.net

 Your ORCA version has been built with support for libXC version: 6.2.2
 For citations please refer to: https://libxc.gitlab.io

 This ORCA versions uses:
   CBLAS   interface :  Fast vector & matrix operations
   LAPACKE interface :  Fast linear algebra routines
   SCALAPACK package :  Parallel linear algebra routines
   Shared memory     :  Shared parallel matrices
   BLAS/LAPACK       :  OpenBLAS 0.3.27  USE64BITINT DYNAMIC_ARCH NO_AFFINITY Zen SINGLE_THREADED
        Core in use  :  Zen
   Copyright (c) 2011-2014, The OpenBLAS Project


NOTE: MaxCore=2000 MB was set to SCF,MP2,MDCI,CIPSI,MRCI and CIS
      => If you want to overwrite this, your respective input block should be placed after the MaxCore statement
Your calculation utilizes the atom-pairwise dispersion correction
with the zero-damping scheme (D30)


XCFun DFT library Copyright 2009-2010 Ulf Ekstrom and contributors.
See http://admol.org/xcfun for more information.
This is free software; see the source code for copying conditions.
There is ABSOLUTELY NO WARRANTY; not even for MERCHANTABILITY or FITNESS FOR A PARTICULAR PURPOSE.
For details see the documentation.
Scientific users of this library should cite U. Ekstrom, L. Visscher, R. Bast, A. J. Thorvaldsen and K. Ruud;
J.Chem.Theor.Comp. 2010, DOI: 10.1021/ct100117s
XCFun Version 0.99 

Warning: RI is on but no J-basis has been assigned. Assigning Def2/J (nothing to worry about!)
================================================================================

----- Orbital basis set information -----
Your calculation utilizes the basis: aug-cc-pVTZ 
    H, B-Ne : Obtained from the ccRepo (grant-hill.group.shef.ac.uk/ccrepo) Feb. 2017
              R. A. Kendall, T. H. Dunning, Jr., R. J. Harrison, J. Chem. Phys. 96, 6796 (1992)
         He : Obtained from the ccRepo (grant-hill.group.shef.ac.uk/ccrepo) Feb. 2017
              D. E. Woon, T. H. Dunning, Jr., J. Chem. Phys. 100, 2975 (1994)
  Li-Be, Na : Obtained from the ccRepo (grant-hill.group.shef.ac.uk/ccrepo) Feb. 2017
              B. P. Prascher, D. E. Woon, K. A. Peterson, T. H. Dunning, Jr., A. K. Wilson, Theor. Chem. Acc. 128, 69 (2011)
         Mg : Obtained from the Peterson Research Group Website (tyr0.chem.wsu.edu/~kipeters) Feb. 2017
              B. P. Prascher, D. E. Woon, K. A. Peterson, T. H. Dunning, Jr., A. K. Wilson, Theor. Chem. Acc. 128, 69 (2011)
      Al-Ar : Obtained from the ccRepo (grant-hill.group.shef.ac.uk/ccrepo) Feb. 2017
              D. E. Woon, T. H. Dunning, Jr., J. Chem. Phys. 98, 1358 (1993)
      Sc-Zn : Obtained from the ccRepo (grant-hill.group.shef.ac.uk/ccrepo) Feb. 2017
              N. B. Balabanov, K. A. Peterson, J. Chem. Phys. 123, 064107 (2005)
              N. B. Balabanov, K. A. Peterson, J. Chem. Phys. 125, 074110 (2006)
      Ga-Kr : Obtained from the ccRepo (grant-hill.group.shef.ac.uk/ccrepo) Feb. 2017
              A. K. Wilson, D. E. Woon, K. A. Peterson, T. H. Dunning, Jr., J. Chem. Phys. 110, 7667 (1999)
     Ag, Au : Obtained from the Peterson Research Group Website (tyr0.chem.wsu.edu/~kipeters) Feb. 2017
              K. A. Peterson, C. Puzzarini, Theor. Chem. Acc. 114, 283 (2005)

The basis set includes element-specific modifications.

----- AuxJ basis set information -----
Your calculation utilizes the auxiliary basis: def2/J
   F. Weigend, Phys. Chem. Chem. Phys. 8, 1057 (2006).

================================================================================
                                        WARNINGS
                       Please study these warnings very carefully!
================================================================================


WARNING: your system is open-shell and RHF/RKS was chosen
  ===> : WILL SWITCH to UHF/UKS


WARNING: Geometry Optimization
  ===> : Switching off AutoStart
         For restart on a previous wavefunction, please use MOREAD

================================================================================
                                       INPUT FILE
================================================================================
NAME = ph3oh-reac.inp
|  1> ! wB97X-D3 aug-cc-pVTZ TightOpt Freq
|  2> 
|  3> %pal nprocs=32 end
|  4> %maxcore 2000
|  5> 
|  6> %basis
|  7>   NewGTO 15
|  8> S   15
|  9> 1         3.124000E+05           5.769600E-05
| 10> 2         4.680000E+04           4.482960E-04
| 11> 3         1.065000E+04           2.349390E-03
| 12> 4         3.018000E+03           9.782650E-03
| 13> 5         9.868000E+02           3.414670E-02
| 14> 6         3.574000E+02           1.002040E-01
| 15> 7         1.396000E+02           2.343720E-01
| 16> 8         5.763000E+01           3.824340E-01
| 17> 9         2.460000E+01           3.180880E-01
| 18> 10        1.012000E+01           7.077880E-02
| 19> 11        4.283000E+00          -1.817990E-03
| 20> 12        1.805000E+00           2.161800E-03
| 21> 13        6.158000E-01          -8.347420E-04
| 22> 14        2.782000E-01           4.322970E-04
| 23> 15        1.055000E-01          -1.142510E-04
| 24> S   15
| 25> 1         3.124000E+05          -1.567090E-05
| 26> 2         4.680000E+04          -1.217240E-04
| 27> 3         1.065000E+04          -6.396720E-04
| 28> 4         3.018000E+03          -2.674260E-03
| 29> 5         9.868000E+02          -9.498310E-03
| 30> 6         3.574000E+02          -2.893490E-02
| 31> 7         1.396000E+02          -7.451210E-02
| 32> 8         5.763000E+01          -1.499380E-01
| 33> 9         2.460000E+01          -1.894670E-01
| 34> 10        1.012000E+01           3.632700E-02
| 35> 11        4.283000E+00           5.288160E-01
| 36> 12        1.805000E+00           5.191150E-01
| 37> 13        6.158000E-01           6.055470E-02
| 38> 14        2.782000E-01          -9.256950E-03
| 39> 15        1.055000E-01           2.103720E-03
| 40> S   1
| 41> 1         6.158000E-01           1.000000E+00
| 42> S   15
| 43> 1         3.124000E+05           4.306310E-06
| 44> 2         4.680000E+04           3.341940E-05
| 45> 3         1.065000E+04           1.758850E-04
| 46> 4         3.018000E+03           7.343400E-04
| 47> 5         9.868000E+02           2.617750E-03
| 48> 6         3.574000E+02           7.978520E-03
| 49> 7         1.396000E+02           2.079400E-02
| 50> 8         5.763000E+01           4.244460E-02
| 51> 9         2.460000E+01           5.634360E-02
| 52> 10        1.012000E+01          -1.273580E-02
| 53> 11        4.283000E+00          -1.964950E-01
| 54> 12        1.805000E+00          -3.535550E-01
| 55> 13        6.158000E-01           7.414070E-02
| 56> 14        2.782000E-01           7.009120E-01
| 57> 15        1.055000E-01           4.047390E-01
| 58> S   1
| 59> 1         1.055000E-01           1.000000E+00
| 60> S   1
| 61> 1         0.0409000              1.0000000
| 62> P   9
| 63> 1         5.049000E+02           2.337280E-03
| 64> 2         1.194000E+02           1.854100E-02
| 65> 3         3.796000E+01           8.496930E-02
| 66> 4         1.395000E+01           2.446150E-01
| 67> 5         5.457000E+00           4.227660E-01
| 68> 6         2.177000E+00           3.684390E-01
| 69> 7         8.010000E-01           7.727340E-02
| 70> 8         2.877000E-01          -3.790050E-03
| 71> 9         9.714000E-02           1.599390E-03
| 72> P   1
| 73> 1         8.010000E-01           1.000000E+00
| 74> P   9
| 75> 1         5.049000E+02          -5.552360E-04
| 76> 2         1.194000E+02          -4.459130E-03
| 77> 3         3.796000E+01          -2.063500E-02
| 78> 4         1.395000E+01          -6.176940E-02
| 79> 5         5.457000E+00          -1.089240E-01
| 80> 6         2.177000E+00          -1.055990E-01
| 81> 7         8.010000E-01           1.534830E-01
| 82> 8         2.877000E-01           5.769810E-01
| 83> 9         9.714000E-02           4.224390E-01
| 84> P   1
| 85> 1         9.714000E-02           1.000000E+00
| 86> P   1
| 87> 1         0.0307000              1.0000000
| 88> D   1
| 89> 1         3.120000E+00           1.000000E+00
| 90> D   1
| 91> 1         6.480000E-01           1.000000E+00
| 92> D   1
| 93> 1         2.180000E-01           1.000000E+00
| 94> D   1
| 95> 1         0.0775000              1.0000000
| 96> F   1
| 97> 1         4.520000E-01           1.0000000
| 98> F   1
| 99> 1         0.1650000              1.0000000
|100>   end
|101> end
|102> 
|103> *xyz 0 2
|104> P     1.340251383930     -0.736200685684      2.097698305530
|105> H     1.386885647470      0.773861055482      2.139031532854
|106> H    -0.036701450140     -0.740922737749      1.969173916355
|107> H     1.663019194179     -0.762072079671      0.753612461611
|108> O     1.540074220223     -2.390559838735      2.409948103049
|109> H     1.121303859836     -3.060211511644      1.860110307901
|110> *
|111> 
|112> 
|113>                          ****END OF INPUT****
================================================================================

                       *****************************
                       * Geometry Optimization Run *
                       *****************************

Geometry optimization settings:
Update method            Update   .... BFGS
Choice of coordinates    CoordSys .... (2022) Redundant Internals
Initial Hessian          InHess   .... Almloef's Model
Max. no of cycles        MaxIter  .... 50

Convergence Tolerances:
Energy Change            TolE     ....  1.0000e-06 Eh
Max. Gradient            TolMAXG  ....  1.0000e-04 Eh/bohr
RMS Gradient             TolRMSG  ....  3.0000e-05 Eh/bohr
Max. Displacement        TolMAXD  ....  1.0000e-03 bohr
RMS Displacement         TolRMSD  ....  6.0000e-04 bohr
Strict Convergence                .... False

------------------------------------------------------------------------------
                        ORCA OPTIMIZATION COORDINATE SETUP
------------------------------------------------------------------------------

The optimization will be done in redundant internal coordinates (2022)
Making redundant internal coordinates   ...  (2022 redundants) done
Evaluating the initial hessian          ...  (Almloef) done
Evaluating the coordinates              ...  done
Calculating the B-matrix                .... done
Calculating the G-matrix                .... done
Diagonalizing the G-matrix              .... done
The first mode is                       ....    3
The number of degrees of freedom        ....   12

    -----------------------------------------------------------------
                    Redundant Internal Coordinates


    -----------------------------------------------------------------
         Definition                    Initial Value    Approx d2E/dq
    -----------------------------------------------------------------
      1. B(H   1,P   0)                  1.5113         0.257445   
      2. B(H   2,P   0)                  1.3829         0.412610   
      3. B(H   3,P   0)                  1.3825         0.413227   
      4. B(O   4,P   0)                  1.6954         0.612556   
      5. B(H   5,O   4)                  0.9624         0.515481   
      6. A(H   1,P   0,H   3)           92.1824         0.330008   
      7. A(H   1,P   0,H   2)           92.1018         0.329926   
      8. A(H   1,P   0,O   4)          165.0825         0.382756   
      9. A(H   2,P   0,O   4)           97.5353         0.415854   
     10. A(H   3,P   0,O   4)           97.6590         0.415965   
     11. A(H   2,P   0,H   3)           98.1656         0.357162   
     12. A(P   0,O   4,H   5)          121.4996         0.393020   
     13. D(H   5,O   4,P   0,H   2)     48.7566         0.007000   
     14. D(H   5,O   4,P   0,H   3)    -50.5867         0.007000   
     15. D(H   5,O   4,P   0,H   1)    178.5663         0.007000   
    -----------------------------------------------------------------

Number of atoms                         .... 6
Number of degrees of freedom            .... 15


         *************************************************************
         *                GEOMETRY OPTIMIZATION CYCLE   1            *
         *************************************************************
---------------------------------
CARTESIAN COORDINATES (ANGSTROEM)
---------------------------------
  P      1.340251   -0.736201    2.097698
  H      1.386886    0.773861    2.139032
  H     -0.036701   -0.740923    1.969174
  H      1.663019   -0.762072    0.753612
  O      1.540074   -2.390560    2.409948
  H      1.121304   -3.060212    1.860110

----------------------------
CARTESIAN COORDINATES (A.U.)
----------------------------
  NO LB      ZA    FRAG     MASS         X           Y           Z
   0 P    15.0000    0    30.974    2.532708   -1.391218    3.964075
   1 H     1.0000    0     1.008    2.620834    1.462385    4.042184
   2 H     1.0000    0     1.008   -0.069356   -1.400141    3.721199
   3 H     1.0000    0     1.008    3.142651   -1.440108    1.424121
   4 O     8.0000    0    15.999    2.910319   -4.517503    4.554142
   5 H     1.0000    0     1.008    2.118957   -5.782962    3.515099

--------------------------------
INTERNAL COORDINATES (ANGSTROEM)
--------------------------------
 P      0   0   0     0.000000000000     0.00000000     0.00000000
 H      1   0   0     1.511346966236     0.00000000     0.00000000
 H      1   2   0     1.382946102942    92.10182873     0.00000000
 H      1   2   3     1.382539382507    92.18242597    98.25804277
 O      1   2   3     1.695385888003   165.08247691   229.64562978
 H      5   1   4     0.962353146585   121.49958913   309.41333482

---------------------------
INTERNAL COORDINATES (A.U.)
---------------------------
 P      0   0   0     0.000000000000     0.00000000     0.00000000
 H      1   0   0     2.856031859518     0.00000000     0.00000000
 H      1   2   0     2.613389392534    92.10182873     0.00000000
 H      1   2   3     2.612620802299    92.18242597    98.25804277
 O      1   2   3     3.203815019640   165.08247691   229.64562978
 H      5   1   4     1.818583891163   121.49958913   309.41333482

---------------------
BASIS SET INFORMATION
---------------------
There are 3 groups of distinct atoms

 Group   1 Type P   : 48s21p4d2f contracted to 6s5p4d2f pattern {151511511/91911/1111/11}
 Group   2 Type H   : 6s3p2d contracted to 4s3p2d pattern {3111/111/11}
 Group   3 Type O   : 19s6p3d2f contracted to 5s4p3d2f pattern {88111/3111/111/11}

Atom   0P    basis set group =>   1
Atom   1H    basis set group =>   2
Atom   2H    basis set group =>   2
Atom   3H    basis set group =>   2
Atom   4O    basis set group =>   3
Atom   5H    basis set group =>   2
---------------------------------
AUXILIARY/J BASIS SET INFORMATION
---------------------------------
There are 3 groups of distinct atoms

 Group   1 Type P   : 14s5p5d2f1g contracted to 8s4p3d1f1g pattern {71111111/2111/311/2/1}
 Group   2 Type H   : 5s2p1d contracted to 3s1p1d pattern {311/2/1}
 Group   3 Type O   : 12s5p4d2f1g contracted to 6s4p3d1f1g pattern {711111/2111/211/2/1}

Atom   0P    basis set group =>   1
Atom   1H    basis set group =>   2
Atom   2H    basis set group =>   2
Atom   3H    basis set group =>   2
Atom   4O    basis set group =>   3
Atom   5H    basis set group =>   2


           ************************************************************
           *        Program running with 32 parallel MPI-processes    *
           *              working on a common directory               *
           ************************************************************
------------------------------------------------------------------------------
                             ORCA STARTUP CALCULATIONS
                           -- RI-GTO INTEGRALS CHOSEN --
------------------------------------------------------------------------------
------------------------------------------------------------------------------
                   ___                                                        
                  /   \      - P O W E R E D   B Y -                         
                 /     \                                                     
                 |  |  |   _    _      __       _____    __    __             
                 |  |  |  | |  | |    /  \     |  _  \  |  |  /  |          
                  \  \/   | |  | |   /    \    | | | |  |  | /  /          
                 / \  \   | |__| |  /  /\  \   | |_| |  |  |/  /          
                |  |  |   |  __  | /  /__\  \  |    /   |      \           
                |  |  |   | |  | | |   __   |  |    \   |  |\   \          
                \     /   | |  | | |  |  |  |  | |\  \  |  | \   \       
                 \___/    |_|  |_| |__|  |__|  |_| \__\ |__|  \__/        
                                                                              
                      - O R C A' S   B I G   F R I E N D -                    
                                      &                                       
                       - I N T E G R A L  F E E D E R -                       
                                                                              
 v1 FN, 2020, v2 2021, v3 2022-2024                                           
------------------------------------------------------------------------------


----------------------
SHARK INTEGRAL PACKAGE
----------------------

Number of atoms                             ...      6
Number of basis functions                   ...    212
Number of shells                            ...     86
Maximum angular momentum                    ...      3
Integral batch strategy                     ... SHARK/LIBINT Hybrid
RI-J (if used) integral strategy            ... SPLIT-RIJ (Revised 2003 algorithm where possible)
Printlevel                                  ...      1
Contraction scheme used                     ... PARTIAL GENERAL contraction
Prescreening option                         ... SCHWARTZ
   Thresh                                   ... 1.000e-12
   Tcut                                     ... 1.000e-14
   Tpresel                                  ... 1.000e-14 
Coulomb Range Separation                    ... NOT USED
Exchange Range Separation                   ... Long Range
   Mu parameter                             ... 2.500e-01
   Scaling (regular/separated)              ... 1.957e-01 8.043e-01
Multipole approximations                    ... NOT USED
Finite Nucleus Model                        ... NOT USED
CABS basis                                  ... NOT available
Auxiliary Coulomb fitting basis             ... AVAILABLE
   # of basis functions in Aux-J            ...    144
   # of shells in Aux-J                     ...     52
   Maximum angular momentum in Aux-J        ...      4
Auxiliary J/K fitting basis                 ... NOT available
Auxiliary Correlation fitting basis         ... NOT available
Auxiliary 'external' fitting basis          ... NOT available

Checking pre-screening integrals            ... done (  0.0 sec) Dimension = 86
Save PGC pre-screening integrals            ... done (  0.0 sec) Dimension = 86
Calculate PGC overlap integrals             ... done (  0.0 sec) Dimension = 67
Calculating pre-screening integrals (ORCA)  ... done (  0.2 sec) Dimension = 67
Check shell pair data                       ... done (  0.0 sec)
Shell pair information
Shell pair cut-off parameter TPreSel        ...   1.0e-14
Total number of shell pairs                 ...      3741
Shell pairs after pre-screening             ...      3645
Total number of primitive shell pairs       ...      8193
Primitive shell pairs kept                  ...      7590
          la=0 lb=0:    998 shell pairs
          la=1 lb=0:    959 shell pairs
          la=1 lb=1:    230 shell pairs
          la=2 lb=0:    685 shell pairs
          la=2 lb=1:    315 shell pairs
          la=2 lb=2:    120 shell pairs
          la=3 lb=0:    184 shell pairs
          la=3 lb=1:     84 shell pairs
          la=3 lb=2:     60 shell pairs
          la=3 lb=3:     10 shell pairs

Calculating one electron integrals          ... done (  0.3 sec)
Calculating RI/J V-Matrix + Cholesky decomp.... done (  0.6 sec)
Calculating Nuclear repulsion               ... done (  0.0 sec) ENN=     68.248025452110 Eh

Diagonalization of the overlap matrix:
Smallest eigenvalue                        ... 6.855e-05
Time for diagonalization                   ...    0.173 sec
Threshold for overlap eigenvalues          ... 1.000e-07
Number of eigenvalues below threshold      ... 0
Time for construction of square roots      ...    0.005 sec
Total time needed                          ...    0.180 sec

-------------------
DFT GRID GENERATION
-------------------

General Integration Accuracy     IntAcc      ... 4.388
Radial Grid Type                 RadialGrid  ... OptM3 with GC (2021)
Angular Grid (max. ang.)         AngularGrid ... 4 (Lebedev-302)
Angular grid pruning method      GridPruning ... 4 (adaptive)
Weight generation scheme         WeightScheme... mBecke (2022)
Basis function cutoff            BFCut       ... 1.0000e-12
Integration weight cutoff        WCut        ... 1.0000e-14
Partially contracted basis set               ... off
Rotationally invariant grid construction     ... off
Angular grids for H and He will be reduced by one unit
Diffuse basis detected: some atoms will have their outermost
                        angular grid increased by 1.

Total number of grid points                  ...    28129
Total number of batches                      ...      443
Average number of points per batch           ...       63
Average number of grid points per atom       ...     4688

---------------------
SHARK GRID GENERATION
---------------------

General Integration Accuracy     IntAcc      ... 4.388
Radial Grid Type                 RadialGrid  ... OptM3 with GC (2021)
Angular Grid (max. ang.)         AngularGrid ... 4 (Lebedev-302)
Angular grid pruning method      GridPruning ... 4 (adaptive)
Weight generation scheme         WeightScheme... mBecke (2022)
Basis function cutoff            BFCut       ... 1.0000e-12
Integration weight cutoff        WCut        ... 1.0000e-14
Partially contracted basis set               ... off
Rotationally invariant grid construction     ... off
Angular grids for H and He will be reduced by one unit
Diffuse basis detected: some atoms will have their outermost
                        angular grid increased by 1.
Steep s-basis detected: some atoms will have their radial
                        grid points doubled.

Total number of grid points                  ...    42459
Total number of batches                      ...      666
Average number of points per batch           ...       63
Average number of grid points per atom       ...     7076

--------------------
COSX GRID GENERATION
--------------------

GRIDX 1
-------
General Integration Accuracy     IntAcc      ... 3.816
Radial Grid Type                 RadialGrid  ... OptM3 with GC (2021)
Angular Grid (max. ang.)         AngularGrid ... 1 (Lebedev-50)
Angular grid pruning method      GridPruning ... 4 (adaptive)
Weight generation scheme         WeightScheme... mBecke (2022)
Basis function cutoff            BFCut       ... 1.0000e-12
Integration weight cutoff        WCut        ... 1.0000e-14
Partially contracted basis set               ... on
Rotationally invariant grid construction     ... off
Angular grids for H and He will be reduced by one unit
Diffuse basis detected: some atoms will have their outermost
                        angular grid increased by 1.

Total number of grid points                  ...     4755
Total number of batches                      ...       39
Average number of points per batch           ...      121
Average number of grid points per atom       ...      792
UseSFitting                                  ... on

GRIDX 2
-------
General Integration Accuracy     IntAcc      ... 4.020
Radial Grid Type                 RadialGrid  ... OptM3 with GC (2021)
Angular Grid (max. ang.)         AngularGrid ... 2 (Lebedev-110)
Angular grid pruning method      GridPruning ... 4 (adaptive)
Weight generation scheme         WeightScheme... mBecke (2022)
Basis function cutoff            BFCut       ... 1.0000e-12
Integration weight cutoff        WCut        ... 1.0000e-14
Partially contracted basis set               ... on
Rotationally invariant grid construction     ... off
Angular grids for H and He will be reduced by one unit
Diffuse basis detected: some atoms will have their outermost
                        angular grid increased by 1.

Total number of grid points                  ...     8053
Total number of batches                      ...       65
Average number of points per batch           ...      123
Average number of grid points per atom       ...     1342
UseSFitting                                  ... on

GRIDX 3
-------
General Integration Accuracy     IntAcc      ... 4.338
Radial Grid Type                 RadialGrid  ... OptM3 with GC (2021)
Angular Grid (max. ang.)         AngularGrid ... 3 (Lebedev-194)
Angular grid pruning method      GridPruning ... 4 (adaptive)
Weight generation scheme         WeightScheme... mBecke (2022)
Basis function cutoff            BFCut       ... 1.0000e-12
Integration weight cutoff        WCut        ... 1.0000e-14
Partially contracted basis set               ... on
Rotationally invariant grid construction     ... off
Angular grids for H and He will be reduced by one unit
Diffuse basis detected: some atoms will have their outermost
                        angular grid increased by 1.

Total number of grid points                  ...    19246
Total number of batches                      ...      153
Average number of points per batch           ...      125
Average number of grid points per atom       ...     3208
UseSFitting                                  ... on
Initializing property integral containers    ... done (  0.1 sec)

SHARK setup successfully completed in   7.9 seconds

Maximum memory used throughout the entire STARTUP-calculation: 80.4 MB


           ************************************************************
           *        Program running with 32 parallel MPI-processes    *
           *              working on a common directory               *
           ************************************************************
-------------------------------------------------------------------------------
                                 ORCA GUESS
                   Start orbitals & Density for SCF / CASSCF
-------------------------------------------------------------------------------

------------
SCF SETTINGS
------------
Hamiltonian:
 Density Functional     Method          .... DFT(GTOs)
 Exchange Functional    Exchange        .... WB97X-D3
 Correlation Functional Correlation     .... WB97X-D3
 Gradients option       PostSCFGGA      .... off
 Hybrid DFT is turned on
   Fraction HF Exchange ScalHFX         ....  0.195728
   Scaling of DF-GGA-X  ScalDFX         ....  0.000000
   Scaling of DF-GGA-C  ScalDFC         ....  1.000000
   Scaling of DF-LDA-C  ScalLDAC        ....  1.000000
   Perturbative correction              ....  0.000000
 Long-range corrected/Screened/Range-Separated Hybrid DFT is turned on
   Amount of maximum screened exact exchange              ....  0.804272
   Range separation parameter mu (erf(mu*r12)/r12)        ....  0.250000
 RI-approximation to the Coulomb term is turned on
   Number of AuxJ basis functions       .... 144
   RIJ-COSX (HFX calculated with COS-X)).... on


General Settings:
 Integral files         IntName         .... ph3oh-reac
 Hartree-Fock type      HFTyp           .... UHF
 Total Charge           Charge          ....    0
 Multiplicity           Mult            ....    2
 Number of Electrons    NEL             ....   27
 Basis Dimension        Dim             ....  193
 Nuclear Repulsion      ENuc            ....     68.2480254521 Eh

Convergence Acceleration:
 AO-DIIS                CNVDIIS         .... on
   Start iteration      DIISMaxIt       ....    12
   Startup error        DIISStart       ....  0.200000
   # of expansion vecs  DIISMaxEq       ....     5
   Bias factor          DIISBfac        ....   1.050
   Max. coefficient     DIISMaxC        ....  10.000
 MO-DIIS                CNVKDIIS        .... off
 Trust-Rad. Augm. Hess. CNVTRAH         .... auto
   Auto Start mean grad. ratio tolernc. ....  1.125000
   Auto Start start iteration           ....    50
   Auto Start num. interpolation iter.  ....    10
   Max. Number of Micro iterations      ....    24
   Max. Number of Macro iterations      .... Maxiter - #DIIS iter
   Number of Davidson start vectors     ....     2
   Converg. threshold    (grad. norm)   ....   2.000e-06
   Grad. Scal. Fac. for Micro threshold ....   0.100
   Minimum threshold for Micro iter.    ....   1.000e-02
   NR start threshold (gradient norm)   ....   1.000e-04
   Initial trust radius                 ....   0.400
   Minimum AH scaling param. (alpha)    ....   1.000
   Maximum AH scaling param. (alpha)    .... 1000.000
   Quad. conv. algorithm                .... NR
   White noise on init. David. guess    .... on
   Maximum white noise                  ....   0.010
   Pseudo random numbers                .... off
   Inactive MOs                         .... canonical
   Orbital update algorithm             .... Taylor
   Preconditioner                       .... Diag
   Full preconditioner red. dimension   ....   250
 SOSCF                  CNVSOSCF        .... on
   Start iteration      SOSCFMaxIt      ....   150
   Startup grad/error   SOSCFStart      ....  0.003300
   Hessian update       SOSCFHessUp     .... L-BFGS
 Level Shifting         CNVShift        .... on
   Level shift para.    LevelShift      ....    0.2500
   Turn off err/grad.   ShiftErr        ....    0.0010
 Zerner damping         CNVZerner       .... off
 Static damping         CNVDamp         .... on
   Fraction old density DampFac         ....    0.7000
   Max. Damping (<1)    DampMax         ....    0.9800
   Min. Damping (>=0)   DampMin         ....    0.0000
   Turn off err/grad.   DampErr         ....    0.1000

SCF Procedure:
 Maximum # iterations   MaxIter         ....   125
 SCF integral mode      SCFMode         .... Direct
   Integral package                     .... SHARK and LIBINT hybrid scheme
 Reset frequency        DirectResetFreq ....    20
 Integral Threshold     Thresh          ....  1.000e-12 Eh
 Primitive CutOff       TCut            ....  1.000e-14 Eh

Convergence Tolerance:
 Convergence Check Mode ConvCheckMode   .... Total+1el-Energy
 Convergence forced     ConvForced      .... 0
 Energy Change          TolE            ....  1.000e-09 Eh
 1-El. energy change                    ....  1.000e-06 Eh
 Orbital Gradient       TolG            ....  2.000e-06
 Orbital Rotation angle TolX            ....  2.000e-06
 DIIS Error             TolErr          ....  1.000e-08

------------------------------
INITIAL GUESS: MODEL POTENTIAL
------------------------------
Loading Hartree-Fock densities                     ... done
Calculating cut-offs                               ... done
Initializing the effective Hamiltonian             ... done
Setting up the integral package (SHARK)            ... done
Starting the Coulomb interaction                   ... done (   1.4 sec)
Making the grid                                    ... done (   0.2 sec)
Mapping shells                                     ... done
Starting the XC term evaluation                    ... done (   0.2 sec)
  promolecular density results
     # of electrons  =     26.999479912
     EX              =    -31.857540434
     EC              =     -0.954357554
     EX+EC           =    -32.811897988
Transforming the Hamiltonian                       ... done (   0.0 sec)
Diagonalizing the Hamiltonian                      ... done (   0.0 sec)
Back transforming the eigenvectors                 ... done (   0.0 sec)
Now organizing SCF variables                       ... done
                      ------------------
                      INITIAL GUESS DONE (   2.0 sec)
                      ------------------
             **** ENERGY FILE WAS UPDATED (ph3oh-reac.en.tmp) ****
Finished Guess after   4.1 sec
Maximum memory used throughout the entire GUESS-calculation: 11.7 MB


           ************************************************************
           *        Program running with 32 parallel MPI-processes    *
           *              working on a common directory               *
           ************************************************************

-------------------------------------------------------------------------------------------
                                      ORCA LEAN-SCF
                              memory conserving SCF solver
-------------------------------------------------------------------------------------------

----------------------------------------D-I-I-S--------------------------------------------
Iteration    Energy (Eh)           Delta-E    RMSDP     MaxDP     DIISErr   Damp  Time(sec)
-------------------------------------------------------------------------------------------
               ***  Starting incremental Fock matrix formation  ***
    1    -418.8371652655860657     0.00e+00  6.94e-04  2.36e-02  1.63e-01  0.700   3.8
    2    -418.8803843919810674    -4.32e-02  4.59e-04  1.68e-02  7.40e-02  0.700   0.3
                               ***Turning on AO-DIIS***
    3    -418.8977267781068576    -1.73e-02  2.70e-04  1.38e-02  2.34e-02  0.700   0.3
    4    -418.9085004055867216    -1.08e-02  6.45e-04  3.79e-02  1.30e-02  0.000   0.3
                              *** Initializing SOSCF ***
---------------------------------------S-O-S-C-F--------------------------------------
Iteration    Energy (Eh)           Delta-E    RMSDP     MaxDP     MaxGrad    Time(sec)
--------------------------------------------------------------------------------------
    5    -418.9330977880280216    -2.46e-02  1.05e-04  6.15e-03  2.12e-03     0.3
               *** Restarting incremental Fock matrix formation ***
    6    -418.9332201010465155    -1.22e-04  6.10e-05  3.14e-03  1.06e-03     0.3
    7    -418.9332641767734344    -4.41e-05  5.22e-05  2.60e-03  5.46e-04     0.3
    8    -418.9332748922157634    -1.07e-05  8.81e-06  3.80e-04  2.25e-04     0.3
    9    -418.9332759394401933    -1.05e-06  5.84e-06  3.03e-04  1.53e-04     0.3
   10    -418.9332766452314445    -7.06e-07  1.45e-06  6.97e-05  4.84e-05     0.3
   11    -418.9332766827916998    -3.76e-08  1.39e-06  6.76e-05  2.56e-05     0.3
   12    -418.9332766947297841    -1.19e-08  2.27e-07  1.20e-05  3.75e-06     0.3
   13    -418.9332766950441282    -3.14e-10  1.25e-07  6.30e-06  1.26e-06     0.3
                 **** Energy Check signals convergence ****

               *****************************************************
               *                     SUCCESS                       *
               *           SCF CONVERGED AFTER  13 CYCLES          *
               *****************************************************

Recomputing exchange energy using gridx3       ... done (    0.371 sec)
Old exchange energy                            :     -9.235638925 Eh
New exchange energy                            :     -9.235660041 Eh
Exchange energy change after final integration :     -0.000021116 Eh
Total energy after final integration           :   -418.933297811 Eh
             **** ENERGY FILE WAS UPDATED (ph3oh-reac.en.tmp) ****

----------------
TOTAL SCF ENERGY
----------------

Total Energy       :       -418.93329781072509 Eh          -11399.75459 eV

Components:
Nuclear Repulsion  :         68.24802545211031 Eh            1857.12319 eV
Electronic Energy  :       -487.18130214715450 Eh          -13256.87720 eV
One Electron Energy:       -713.47404912185448 Eh          -19414.61590 eV
Two Electron Energy:        226.29274697470001 Eh            6157.73870 eV

Virial components:
Potential Energy   :       -836.43458736747198 Eh          -22760.54225 eV
Kinetic Energy     :        417.50128955674683 Eh           11360.78766 eV
Virial Ratio       :          2.00342994929548

DFT components:
N(Alpha)           :       13.999955147866 electrons
N(Beta)            :       13.000015161634 electrons
N(Total)           :       26.999970309500 electrons
E(XC)              :      -24.080110532731 Eh       

---------------
SCF CONVERGENCE
---------------

  Last Energy change         ...    3.1434e-10  Tolerance :   1.0000e-09
  Last MAX-Density change    ...    6.2992e-06  Tolerance :   1.0000e-08
  Last RMS-Density change    ...    1.2456e-07  Tolerance :   1.0000e-09
  Last DIIS Error            ...    2.1197e-03  Tolerance :   1.0000e-08
  Last Orbital Gradient      ...    1.2560e-06  Tolerance :   2.0000e-06
  Last Orbital Rotation      ...    5.0517e-06  Tolerance :   2.0000e-06


----------------------
UHF SPIN CONTAMINATION
----------------------

Warning: in a DFT calculation there is little theoretical justification to 
         calculate <S**2> as in Hartree-Fock theory. We will do it anyways
         but you should keep in mind that the values have only limited relevance

Expectation value of <S**2>     :     0.755159
Ideal value S*(S+1) for S=0.5   :     0.750000
Deviation                       :     0.005159

----------------
ORBITAL ENERGIES
----------------
                 SPIN UP ORBITALS
  NO   OCC          E(Eh)            E(eV) 
   0   1.0000     -77.232099     -2101.5923 
   1   1.0000     -19.235242      -523.4175 
   2   1.0000      -6.710488      -182.6017 
   3   1.0000      -4.864519      -132.3703 
   4   1.0000      -4.862083      -132.3040 
   5   1.0000      -4.861265      -132.2818 
   6   1.0000      -1.123987       -30.5852 
   7   1.0000      -0.785506       -21.3747 
   8   1.0000      -0.628030       -17.0896 
   9   1.0000      -0.530548       -14.4369 
  10   1.0000      -0.514024       -13.9873 
  11   1.0000      -0.425797       -11.5865 
  12   1.0000      -0.406469       -11.0606 
  13   1.0000      -0.295396        -8.0381 
  14   0.0000       0.025983         0.7070 
  15   0.0000       0.041951         1.1415 
  16   0.0000       0.052531         1.4294 
  17   0.0000       0.062298         1.6952 
  18   0.0000       0.081746         2.2244 
  19   0.0000       0.082877         2.2552 
  20   0.0000       0.112812         3.0698 
  21   0.0000       0.127417         3.4672 
  22   0.0000       0.130800         3.5592 
  23   0.0000       0.157254         4.2791 
  24   0.0000       0.164238         4.4692 

                 SPIN DOWN ORBITALS
  NO   OCC          E(Eh)            E(eV) 
   0   1.0000     -77.229273     -2101.5154 
   1   1.0000     -19.231253      -523.3090 
   2   1.0000      -6.707436      -182.5186 
   3   1.0000      -4.859945      -132.2458 
   4   1.0000      -4.859898      -132.2445 
   5   1.0000      -4.857676      -132.1841 
   6   1.0000      -1.112408       -30.2702 
   7   1.0000      -0.766001       -20.8440 
   8   1.0000      -0.607338       -16.5265 
   9   1.0000      -0.523886       -14.2557 
  10   1.0000      -0.493632       -13.4324 
  11   1.0000      -0.411513       -11.1978 
  12   1.0000      -0.402517       -10.9530 
  13   0.0000      -0.019259        -0.5241 
  14   0.0000       0.032358         0.8805 
  15   0.0000       0.053428         1.4538 
  16   0.0000       0.056749         1.5442 
  17   0.0000       0.071625         1.9490 
  18   0.0000       0.093202         2.5361 
  19   0.0000       0.104175         2.8348 
  20   0.0000       0.117954         3.2097 
  21   0.0000       0.135284         3.6813 
  22   0.0000       0.140862         3.8331 
  23   0.0000       0.163325         4.4443 
*Only the first 10 virtual orbitals were printed.

                    ********************************
                    * MULLIKEN POPULATION ANALYSIS *
                    ********************************

--------------------------------------------
MULLIKEN ATOMIC CHARGES AND SPIN POPULATIONS
--------------------------------------------
   0 P :    0.090545    0.683341
   1 H :    0.028605    0.281151
   2 H :    0.122530   -0.018470
   3 H :    0.122357   -0.018408
   4 O :   -0.516860    0.029403
   5 H :    0.152823    0.042982
Sum of atomic charges         :   -0.0000000
Sum of atomic spin populations:    1.0000000

-----------------------------------------------------
MULLIKEN REDUCED ORBITAL CHARGES AND SPIN POPULATIONS
-----------------------------------------------------
CHARGE
  0 P s       :     5.421407  s :     5.421407
      pz      :     3.072262  p :     8.952787
      px      :     3.028705
      py      :     2.851820
      dz2     :     0.159099  d :     0.495919
      dxz     :     0.014940
      dyz     :     0.036690
      dx2y2   :     0.241207
      dxy     :     0.043982
      f0      :     0.008771  f :     0.039343
      f+1     :     0.002198
      f-1     :     0.005416
      f+2     :     0.003873
      f-2     :    -0.000790
      f+3     :     0.010890
      f-3     :     0.008984

  1 H s       :     0.948700  s :     0.948700
      pz      :     0.006971  p :     0.021462
      px      :     0.001335
      py      :     0.013156
      dz2     :    -0.000139  d :     0.001233
      dxz     :     0.000009
      dyz     :     0.001019
      dx2y2   :    -0.000368
      dxy     :     0.000712

  2 H s       :     0.870984  s :     0.870984
      pz      :     0.000297  p :     0.004754
      px      :     0.004974
      py      :    -0.000516
      dz2     :    -0.000037  d :     0.001732
      dxz     :     0.000767
      dyz     :    -0.000189
      dx2y2   :     0.001161
      dxy     :     0.000030

  3 H s       :     0.870841  s :     0.870841
      pz      :     0.006444  p :     0.005019
      px      :    -0.000822
      py      :    -0.000603
      dz2     :     0.001457  d :     0.001782
      dxz     :     0.000283
      dyz     :    -0.000199
      dx2y2   :     0.000163
      dxy     :     0.000078

  4 O s       :     3.868518  s :     3.868518
      pz      :     1.621720  p :     4.627365
      px      :     1.722763
      py      :     1.282882
      dz2     :     0.004417  d :     0.018884
      dxz     :     0.001623
      dyz     :     0.002152
      dx2y2   :     0.006684
      dxy     :     0.004009
      f0      :     0.000197  f :     0.002093
      f+1     :     0.000074
      f-1     :     0.000181
      f+2     :     0.000441
      f-2     :     0.000010
      f+3     :     0.000793
      f-3     :     0.000397

  5 H s       :     0.706151  s :     0.706151
      pz      :     0.031923  p :     0.114034
      px      :     0.040250
      py      :     0.041860
      dz2     :     0.007877  d :     0.026992
      dxz     :     0.003266
      dyz     :     0.002547
      dx2y2   :     0.009770
      dxy     :     0.003531


SPIN
  0 P s       :     0.137318  s :     0.137318
      pz      :     0.271907  p :     0.412969
      px      :     0.166249
      py      :    -0.025187
      dz2     :     0.026151  d :     0.129943
      dxz     :     0.000111
      dyz     :     0.007092
      dx2y2   :     0.093996
      dxy     :     0.002594
      f0      :     0.001076  f :     0.003111
      f+1     :    -0.000126
      f-1     :    -0.000276
      f+2     :     0.001042
      f-2     :     0.000036
      f+3     :     0.001499
      f-3     :    -0.000140

  1 H s       :     0.266501  s :     0.266501
      pz      :     0.004265  p :     0.014279
      px      :     0.002263
      py      :     0.007751
      dz2     :    -0.000068  d :     0.000371
      dxz     :     0.000010
      dyz     :     0.000325
      dx2y2   :    -0.000179
      dxy     :     0.000283

  2 H s       :    -0.029021  s :    -0.029021
      pz      :     0.003218  p :     0.009925
      px      :     0.005379
      py      :     0.001327
      dz2     :     0.000052  d :     0.000626
      dxz     :    -0.000246
      dyz     :    -0.000039
      dx2y2   :     0.001116
      dxy     :    -0.000257

  3 H s       :    -0.029059  s :    -0.029059
      pz      :     0.005922  p :     0.010016
      px      :     0.002631
      py      :     0.001463
      dz2     :     0.001273  d :     0.000634
      dxz     :    -0.000381
      dyz     :    -0.000227
      dx2y2   :     0.000034
      dxy     :    -0.000065

  4 O s       :    -0.028259  s :    -0.028259
      pz      :     0.004721  p :     0.053724
      px      :     0.001483
      py      :     0.047520
      dz2     :     0.000822  d :     0.003891
      dxz     :     0.000214
      dyz     :     0.000477
      dx2y2   :     0.001881
      dxy     :     0.000497
      f0      :    -0.000009  f :     0.000046
      f+1     :    -0.000007
      f-1     :     0.000050
      f+2     :    -0.000051
      f-2     :     0.000073
      f+3     :    -0.000029
      f-3     :     0.000018

  5 H s       :     0.038085  s :     0.038085
      pz      :     0.001035  p :     0.003511
      px      :     0.000557
      py      :     0.001920
      dz2     :     0.000173  d :     0.001386
      dxz     :     0.000103
      dyz     :     0.000380
      dx2y2   :     0.000534
      dxy     :     0.000196



                     *******************************
                     * LOEWDIN POPULATION ANALYSIS *
                     *******************************

-------------------------------------------
LOEWDIN ATOMIC CHARGES AND SPIN POPULATIONS
-------------------------------------------
   0 P :    1.004296    0.504129
   1 H :   -0.287171    0.235718
   2 H :   -0.298775    0.032189
   3 H :   -0.299127    0.032691
   4 O :    0.486066    0.164941
   5 H :   -0.605288    0.030332

----------------------------------------------------
LOEWDIN REDUCED ORBITAL CHARGES AND SPIN POPULATIONS
----------------------------------------------------
CHARGE
  0 P s       :     4.603401  s :     4.603401
      pz      :     2.735239  p :     8.090265
      px      :     2.715063
      py      :     2.639963
      dz2     :     0.249902  d :     0.941152
      dxz     :     0.030292
      dyz     :     0.114978
      dx2y2   :     0.436470
      dxy     :     0.109509
      f0      :     0.058613  f :     0.360885
      f+1     :     0.017382
      f-1     :     0.046185
      f+2     :     0.055154
      f-2     :     0.008176
      f+3     :     0.106183
      f-3     :     0.069192

  1 H s       :     0.776675  s :     0.776675
      pz      :     0.076343  p :     0.331073
      px      :     0.070746
      py      :     0.183984
      dz2     :     0.016419  d :     0.179423
      dxz     :     0.000582
      dyz     :     0.061716
      dx2y2   :     0.041111
      dxy     :     0.059595

  2 H s       :     0.784502  s :     0.784502
      pz      :     0.077652  p :     0.314164
      px      :     0.156655
      py      :     0.079857
      dz2     :     0.019306  d :     0.200110
      dxz     :     0.068077
      dyz     :     0.003710
      dx2y2   :     0.044758
      dxy     :     0.064258

  3 H s       :     0.784827  s :     0.784827
      pz      :     0.155904  p :     0.314251
      px      :     0.078357
      py      :     0.079990
      dz2     :     0.058652  d :     0.200049
      dxz     :     0.055237
      dyz     :     0.063675
      dx2y2   :     0.018460
      dxy     :     0.004024

  4 O s       :     3.105599  s :     3.105599
      pz      :     1.412434  p :     4.138428
      px      :     1.430083
      py      :     1.295911
      dz2     :     0.026798  d :     0.228362
      dxz     :     0.007046
      dyz     :     0.070920
      dx2y2   :     0.062919
      dxy     :     0.060679
      f0      :     0.003656  f :     0.041546
      f+1     :     0.000834
      f-1     :     0.007913
      f+2     :     0.006536
      f-2     :     0.004625
      f+3     :     0.008772
      f-3     :     0.009210

  5 H s       :     0.631615  s :     0.631615
      pz      :     0.208710  p :     0.592022
      px      :     0.192070
      py      :     0.191243
      dz2     :     0.082640  d :     0.381651
      dxz     :     0.057993
      dyz     :     0.082646
      dx2y2   :     0.084866
      dxy     :     0.073505


SPIN
  0 P s       :     0.066821  s :     0.066821
      pz      :     0.153383  p :     0.254401
      px      :     0.086172
      py      :     0.014846
      dz2     :     0.034102  d :     0.164572
      dxz     :     0.000312
      dyz     :     0.006288
      dx2y2   :     0.121991
      dxy     :     0.001879
      f0      :     0.002315  f :     0.018335
      f+1     :    -0.000442
      f-1     :     0.003406
      f+2     :     0.004439
      f-2     :     0.000280
      f+3     :     0.003194
      f-3     :     0.005144

  1 H s       :     0.133517  s :     0.133517
      pz      :     0.020566  p :     0.073274
      px      :     0.010284
      py      :     0.042425
      dz2     :     0.001709  d :     0.028926
      dxz     :     0.000002
      dyz     :     0.013902
      dx2y2   :     0.005724
      dxy     :     0.007589

  2 H s       :    -0.008279  s :    -0.008279
      pz      :     0.015301  p :     0.023879
      px      :     0.001359
      py      :     0.007219
      dz2     :     0.001743  d :     0.016589
      dxz     :     0.010645
      dyz     :    -0.000060
      dx2y2   :     0.003905
      dxy     :     0.000356

  3 H s       :    -0.008207  s :    -0.008207
      pz      :     0.005090  p :     0.024175
      px      :     0.011602
      py      :     0.007483
      dz2     :     0.007694  d :     0.016723
      dxz     :     0.007445
      dyz     :    -0.000232
      dx2y2   :     0.001350
      dxy     :     0.000467

  4 O s       :     0.036985  s :     0.036985
      pz      :     0.003991  p :     0.073707
      px      :     0.003113
      py      :     0.066603
      dz2     :     0.007502  d :     0.047372
      dxz     :     0.000090
      dyz     :     0.011549
      dx2y2   :     0.020681
      dxy     :     0.007550
      f0      :     0.000318  f :     0.006878
      f+1     :     0.000078
      f-1     :     0.002215
      f+2     :     0.000625
      f-2     :     0.000933
      f+3     :     0.000726
      f-3     :     0.001982

  5 H s       :     0.020446  s :     0.020446
      pz      :    -0.000750  p :     0.006581
      px      :    -0.000974
      py      :     0.008305
      dz2     :     0.000508  d :     0.003305
      dxz     :     0.000104
      dyz     :     0.000667
      dx2y2   :     0.001687
      dxy     :     0.000339



                      *****************************
                      * MAYER POPULATION ANALYSIS *
                      *****************************

  NA   - Mulliken gross atomic population
  ZA   - Total nuclear charge
  QA   - Mulliken gross atomic charge
  VA   - Mayer's total valence
  BVA  - Mayer's bonded valence
  FA   - Mayer's free valence

  ATOM       NA         ZA         QA         VA         BVA        FA
  0 P     14.9095    15.0000     0.0905     4.2126     3.6461     0.5665
  1 H      0.9714     1.0000     0.0286     0.9690     0.8859     0.0831
  2 H      0.8775     1.0000     0.1225     0.9697     0.9687     0.0009
  3 H      0.8776     1.0000     0.1224     0.9711     0.9701     0.0009
  4 O      8.5169     8.0000    -0.5169     1.8711     1.8606     0.0104
  5 H      0.8472     1.0000     0.1528     1.0824     1.0808     0.0017

  Mayer bond orders larger than 0.100000
B(  0-P ,  1-H ) :   0.9080 B(  0-P ,  2-H ) :   0.9570 B(  0-P ,  3-H ) :   0.9575 
B(  0-P ,  4-O ) :   0.7654 B(  4-O ,  5-H ) :   1.0229 

-------
TIMINGS
-------

Total SCF time: 0 days 0 hours 0 min 9 sec 

Total time                  ....       9.363 sec
Sum of individual times     ....       9.342 sec  ( 99.8%)

SCF preparation             ....       1.544 sec  ( 16.5%)
Fock matrix formation       ....       7.037 sec  ( 75.2%)
  Startup                   ....       0.024 sec  (  0.3% of F)
  Split-RI-J                ....       2.391 sec  ( 34.0% of F)
  Chain of spheres X        ....       3.179 sec  ( 45.2% of F)
  XC integration            ....       1.359 sec  ( 19.3% of F)
    Basis function eval.    ....       0.057 sec  (  4.2% of XC)
    Density eval.           ....       0.111 sec  (  8.2% of XC)
    XC-Functional eval.     ....       0.016 sec  (  1.2% of XC)
    XC-Potential eval.      ....       0.156 sec  ( 11.5% of XC)
Diagonalization             ....       0.000 sec  (  0.0%)
Density matrix formation    ....       0.055 sec  (  0.6%)
Total Energy calculation    ....       0.040 sec  (  0.4%)
Population analysis         ....       0.223 sec  (  2.4%)
Orbital Transformation      ....       0.048 sec  (  0.5%)
Orbital Orthonormalization  ....       0.000 sec  (  0.0%)
DIIS solution               ....       0.252 sec  (  2.7%)
SOSCF solution              ....       0.143 sec  (  1.5%)
Finished LeanSCF after   9.4 sec

Maximum memory used throughout the entire LEANSCF-calculation: 18.7 MB


           ************************************************************
           *        Program running with 32 parallel MPI-processes    *
           *              working on a common directory               *
           ************************************************************

------------------------------------------------------------------------------
                         ORCA PROPERTY INTEGRAL CALCULATIONS
------------------------------------------------------------------------------

GBWName                                   ... ph3oh-reac.gbw
Number of atoms                           ...      6
Number of basis functions                 ...    212
Max core memory                           ...   2000 MB

Dipole integrals                          ... YES
Quadrupole integrals                      ...  NO
Linear momentum integrals                 ...  NO
Angular momentum integrals                ...  NO
Higher moments length integrals           ...  NO
Higher moments velocity integrals         ...  NO
Kinetic energy integrals                  ...  NO
GIAO right hand sides                     ...  NO
GIAO dipole derivative integrals          ...  NO
SOC integrals                             ...  NO
EPR diamagnetic integrals (GIAO)          ...  NO
EPR gauge integrals                       ...  NO
Field gradient integrals                  ...  NO (   0 nuclei)
Spin-dipole/Fermi contact integrals       ...  NO (   0 nuclei)
Contact density integrals                 ...  NO (   0 nuclei)
Nucleus-orbit integrals                   ...  NO (   0 nuclei)
Geometric perturbations                   ...  NO (   6 nuclei)

Choice of electric origin   ... Center of mass
Position of electric origin ... (  2.6053, -2.4034,  4.0868) 
Choice of magnetic origin   ... GIAO
Position of magnetic origin ... (  0.0000,  0.0000,  0.0000) 

Calculating integrals                     ... Electric Dipole (Length)     done (  0.0 sec)

Property integrals calculated in   0.0 sec

Maximum memory used throughout the entire PROPINT-calculation: 12.4 MB


-------------------------------------------------------------------------------
                          DFT DISPERSION CORRECTION                            
                                                                               
                              DFTD3 V3.1  Rev 1                                
                              USING zero damping                               
-------------------------------------------------------------------------------
The omegaB97X-D3 functional is recognized. Fit by Chai et al.
Active option DFTDOPT                   ...         3   

molecular C6(AA) [au] = 500.196401 


            DFT-D V3
 parameters
 s6 scaling factor         :     1.0000 
 rs6 scaling factor        :     1.2810 
 s8 scaling factor         :     1.0000 
 rs8 scaling factor        :     1.0940 
 Damping factor alpha6     :    14.0000 
 Damping factor alpha8     :    16.0000 
 ad hoc parameters k1-k3   :    16.0000     1.3333    -4.0000 

 Edisp/kcal,au: -0.275994152350  -0.000439824631 
 E6   /kcal   :  -0.082334183 
 E8   /kcal   :  -0.193659969 
 % E8         :  70.168142183 

-------------------------   ----------------
Dispersion correction           -0.000439825
-------------------------   ----------------


-------------------------   --------------------
FINAL SINGLE POINT ENERGY      -418.933737635356
-------------------------   --------------------



           ************************************************************
           *        Program running with 32 parallel MPI-processes    *
           *              working on a common directory               *
           ************************************************************
------------------------------------------------------------------------------
                         ORCA SCF GRADIENT CALCULATION
------------------------------------------------------------------------------

Nuc. rep. gradient        (SHARK) ... done (  0.0 sec)
HCore & Overlap gradient  (SHARK) ... done (  0.2 sec)
Split-RIJ-J gradient      (SHARK) ... done (  3.0 sec)
COSX-gradient                     ... done (  3.2 sec)
XC gradient                       ... done (  0.5 sec)
Dispersion correction             ... done (  0.7 sec)

-------------------
DISPERSION GRADIENT
-------------------

   1   P   :   -0.000001399   -0.000015921   -0.000001488
   2   H   :   -0.000016562    0.000023148   -0.000023836
   3   H   :    0.000131168   -0.000086644    0.000004736
   4   H   :   -0.000039374   -0.000082452    0.000126175
   5   O   :   -0.000065631    0.000106731   -0.000094025
   6   H   :   -0.000008202    0.000055138   -0.000011562

Difference to translation invariance:
           :    0.0000000000    0.0000000000   -0.0000000000

Difference to rotation invariance:
           :    0.0000000000    0.0000000000    0.0000000000

Norm of the Dispersion gradient    ...    0.0002800358
RMS gradient                       ...    0.0000660051
MAX gradient                       ...    0.0001311676

------------------
CARTESIAN GRADIENT
------------------

   1   P   :    0.003177438    0.003766193    0.003763990
   2   H   :   -0.001994471    0.006604810   -0.002843765
   3   H   :    0.010839685   -0.002730608   -0.002544172
   4   H   :   -0.006092112   -0.002509347    0.009594517
   5   O   :   -0.008439898    0.002096093   -0.011470006
   6   H   :    0.002509358   -0.007227140    0.003499436

Difference to translation invariance:
           :    0.0000000000   -0.0000000000   -0.0000000000

Difference to rotation invariance:
           :   -0.0001058267    0.0001359510    0.0000636896

Norm of the Cartesian gradient     ...    0.0252782631
RMS gradient                       ...    0.0059581438
MAX gradient                       ...    0.0114700062

-------
TIMINGS
-------

Total SCF gradient time     ....        7.768 sec

Densities                   ....       0.001 sec  (  0.0%)
One electron gradient       ....       0.212 sec  (  2.7%)
RI-J Coulomb gradient       ....       2.970 sec  ( 38.2%)
COSX gradient               ....       3.215 sec  ( 41.4%)
XC gradient                 ....       0.538 sec  (  6.9%)

Maximum memory used throughout the entire SCFGRAD-calculation: 30.9 MB
------------------------------------------------------------------------------
                         ORCA GEOMETRY RELAXATION STEP
------------------------------------------------------------------------------

Reading the OPT-File                    .... done
Getting information on internals        .... done
Copying old internal coords+grads       .... done
Making the new internal coordinates     .... (2022 redundants) done
Validating the new internal coordinates .... (2022 redundants) done
Calculating the B-matrix                .... done
Calculating the G,G- and P matrices     .... done
Transforming gradient to internals      .... done
Projecting the internal gradient        .... done
Number of atoms                         ....   6
Number of internal coordinates          ....  15
Current Energy                          ....  -418.933737635 Eh
Current gradient norm                   ....     0.025278263 Eh/bohr
Maximum allowed component of the step   ....  0.300
Current trust radius                    ....  0.300
Evaluating the initial hessian          ....  (Almloef) done
Projecting the Hessian                  .... done
Forming the augmented Hessian           .... done
Diagonalizing the augmented Hessian     .... done
Last element of RFO vector              ....  0.996908599
Lowest eigenvalues of augmented Hessian:
 -0.002128637  0.007000548  0.026709905  0.237490353  0.257607300
Length of the computed step             ....  0.078813644
The final length of the internal step   ....  0.078813644
Converting the step to Cartesian space:
 Initial RMS(Int)=    0.0203495953
Transforming coordinates:
 Iter   0:  RMS(Cart)=    0.0217602506 RMS(Int)=    0.0203391592
done
Storing new coordinates                 .... done

                                .--------------------.
          ----------------------|Geometry convergence|-------------------------
          Item                value                   Tolerance       Converged
          ---------------------------------------------------------------------
          RMS gradient        0.0071752552            0.0000300000      NO
          MAX gradient        0.0148725516            0.0001000000      NO
          RMS step            0.0203495953            0.0006000000      NO
          MAX step            0.0376378898            0.0010000000      NO
          ........................................................
          Max(Bonds)      0.0136      Max(Angles)    2.16
          Max(Dihed)        1.25      Max(Improp)    0.00
          ---------------------------------------------------------------------

The optimization has not yet converged - more geometry cycles are needed


    ---------------------------------------------------------------------------
                         Redundant Internal Coordinates
                            (Angstroem and degrees)

        Definition                    Value    dE/dq     Step     New-Value
    ----------------------------------------------------------------------------
     1. B(H   1,P   0)                1.5113  0.006458 -0.0132    1.4982   
     2. B(H   2,P   0)                1.3829 -0.010544  0.0135    1.3964   
     3. B(H   3,P   0)                1.3825 -0.010709  0.0136    1.3962   
     4. B(O   4,P   0)                1.6954  0.002839 -0.0024    1.6929   
     5. B(H   5,O   4)                0.9624  0.001946 -0.0020    0.9604   
     6. A(H   1,P   0,H   3)           92.18  0.000027   -0.07     92.12   
     7. A(H   1,P   0,H   2)           92.10  0.000102   -0.02     92.08   
     8. A(H   1,P   0,O   4)          165.08  0.010719   -1.63    163.45   
     9. A(H   2,P   0,O   4)           97.54 -0.006369    0.96     98.49   
    10. A(H   3,P   0,O   4)           97.66 -0.006395    0.92     98.57   
    11. A(H   2,P   0,H   3)           98.17 -0.006298    1.66     99.83   
    12. A(P   0,O   4,H   5)          121.50  0.014873   -2.16    119.34   
    13. D(H   5,O   4,P   0,H   2)     48.76 -0.004145    0.74     49.49   
    14. D(H   5,O   4,P   0,H   3)    -50.59  0.004291   -1.25    -51.84   
    15. D(H   5,O   4,P   0,H   1)    178.57 -0.000067    0.02    178.59   
    ----------------------------------------------------------------------------

Geometry step timings:
Preparation and reading OPT file:      0.000 s (14.392 %)
Internal coordinates            :      0.000 s ( 2.967 %)
B/P matrices and projection     :      0.000 s (17.211 %)
Hessian update/contruction      :      0.000 s (12.611 %)
Making the step                 :      0.000 s ( 9.941 %)
Converting the step to Cartesian:      0.000 s ( 5.045 %)
Storing new data                :      0.000 s ( 2.522 %)
Checking convergence            :      0.000 s ( 0.297 %)
Final printing                  :      0.000 s (34.273 %)
Total time                      :      0.001 s

Time for energy+gradient        :     44.879 s
Time for complete geometry iter :     46.339 s

         *************************************************************
         *                GEOMETRY OPTIMIZATION CYCLE   2            *
         *************************************************************
---------------------------------
CARTESIAN COORDINATES (ANGSTROEM)
---------------------------------
  P      1.333286   -0.743418    2.088433
  H      1.390668    0.752596    2.144953
  H     -0.058722   -0.736534    1.977986
  H      1.679300   -0.757010    0.735874
  O      1.549462   -2.389339    2.420491
  H      1.120839   -3.042400    1.861838

----------------------------
CARTESIAN COORDINATES (A.U.)
----------------------------
  NO LB      ZA    FRAG     MASS         X           Y           Z
   0 P    15.0000    0    30.974    2.519545   -1.404857    3.946567
   1 H     1.0000    0     1.008    2.627982    1.422201    4.053374
   2 H     1.0000    0     1.008   -0.110969   -1.391848    3.737851
   3 H     1.0000    0     1.008    3.173417   -1.430542    1.390600
   4 O     8.0000    0    15.999    2.928059   -4.515197    4.574064
   5 H     1.0000    0     1.008    2.118079   -5.749303    3.518364

--------------------------------
INTERNAL COORDINATES (ANGSTROEM)
--------------------------------
 P      0   0   0     0.000000000000     0.00000000     0.00000000
 H      1   0   0     1.498180873984     0.00000000     0.00000000
 H      1   2   0     1.396399422226    92.07698126     0.00000000
 H      1   2   3     1.396183396154    92.10756258    99.90621966
 O      1   2   3     1.692941505232   163.44150692   230.19225487
 H      5   1   2     0.960363727855   119.34309689   178.58906096

---------------------------
INTERNAL COORDINATES (A.U.)
---------------------------
 P      0   0   0     0.000000000000     0.00000000     0.00000000
 H      1   0   0     2.831151550908     0.00000000     0.00000000
 H      1   2   0     2.638812481573    92.07698126     0.00000000
 H      1   2   3     2.638404251458    92.10756258    99.90621966
 O      1   2   3     3.199195805638   163.44150692   230.19225487
 H      5   1   2     1.814824434597   119.34309689   178.58906096



           ************************************************************
           *        Program running with 32 parallel MPI-processes    *
           *              working on a common directory               *
           ************************************************************
------------------------------------------------------------------------------
                   ___                                                        
                  /   \      - P O W E R E D   B Y -                         
                 /     \                                                     
                 |  |  |   _    _      __       _____    __    __             
                 |  |  |  | |  | |    /  \     |  _  \  |  |  /  |          
                  \  \/   | |  | |   /    \    | | | |  |  | /  /          
                 / \  \   | |__| |  /  /\  \   | |_| |  |  |/  /          
                |  |  |   |  __  | /  /__\  \  |    /   |      \           
                |  |  |   | |  | | |   __   |  |    \   |  |\   \          
                \     /   | |  | | |  |  |  |  | |\  \  |  | \   \       
                 \___/    |_|  |_| |__|  |__|  |_| \__\ |__|  \__/        
                                                                              
                      - O R C A' S   B I G   F R I E N D -                    
                                      &                                       
                       - I N T E G R A L  F E E D E R -                       
                                                                              
 v1 FN, 2020, v2 2021, v3 2022-2024                                           
------------------------------------------------------------------------------


----------------------
SHARK INTEGRAL PACKAGE
----------------------

Number of atoms                             ...      6
Number of basis functions                   ...    212
Number of shells                            ...     86
Maximum angular momentum                    ...      3
Integral batch strategy                     ... SHARK/LIBINT Hybrid
RI-J (if used) integral strategy            ... SPLIT-RIJ (Revised 2003 algorithm where possible)
Printlevel                                  ...      1
Contraction scheme used                     ... PARTIAL GENERAL contraction
Prescreening option                         ... SCHWARTZ
   Thresh                                   ... 1.000e-12
   Tcut                                     ... 1.000e-14
   Tpresel                                  ... 1.000e-14 
[...]
Magnitude (Debye)      :      0.992824514



--------------------
Rotational spectrum 
--------------------
 
Rotational constants in cm-1:             3.527750             0.417318             0.408308 
Rotational constants in MHz :        105759.290190         12510.872162         12240.758218 

Dipole components along the rotational axes: 
x,y,z [a.u.] :    -0.130755    -0.360516     0.074156 
x,y,z [Debye]:    -0.332354    -0.916359     0.188488 

 

Dipole moment calculation done in   0.1 sec 

-----------
SCF HESSIAN
-----------

Occupied/Occupied contributions to the Hessian:
   => Occupied/Occupied contributions              ... done (  0.0 sec)
Perturbed density contributions to the Hessian:
   => Perturbed density contributions              ... done (  0.0 sec)
Explicit contributions to the Hessian:
   => Nuclear repulsion Hessian                    ... done (  0.0 sec)
   => HCore and overlap Hessian                    ... done (  0.1 sec)
   => RI-J Hessian                                 ... done (  4.4 sec)
   => COSX Hessian                                 ... done ( 15.0 sec)
   => XC-Hessian                                   ... done (  0.9 sec)
   => Van der Waals-Hessian                        ... done (  0.1 sec)
   => Explicit contributions done
Dipole derivatives                                 ... done (  0.1 sec)
Mass weighting the Hessian           ... done
Calculating normal modes             ... done
Scaling frequencies                  ... done

-----------------------
VIBRATIONAL FREQUENCIES
-----------------------

Scaling factor for frequencies =  1.000000000  (already applied!)

     0:       0.00 cm**-1
     1:       0.00 cm**-1
     2:       0.00 cm**-1
     3:       0.00 cm**-1
     4:       0.00 cm**-1
     5:       0.00 cm**-1
     6:     268.00 cm**-1
     7:     566.95 cm**-1
     8:     615.00 cm**-1
     9:     713.02 cm**-1
    10:     964.13 cm**-1
    11:    1010.69 cm**-1
    12:    1175.97 cm**-1
    13:    1222.78 cm**-1
    14:    2004.59 cm**-1
    15:    2494.81 cm**-1
    16:    2529.64 cm**-1
    17:    3879.56 cm**-1


------------
NORMAL MODES
------------

These modes are the Cartesian displacements weighted by the diagonal matrix
M(i,i)=1/sqrt(m[i]) where m[i] is the mass of the displaced atom
Thus, these vectors are normalized but *not* orthogonal

                  0          1          2          3          4          5    
      0       0.000000   0.000000   0.000000   0.000000   0.000000   0.000000
      1       0.000000   0.000000   0.000000   0.000000   0.000000   0.000000
      2       0.000000   0.000000   0.000000   0.000000   0.000000   0.000000
      3       0.000000   0.000000   0.000000   0.000000   0.000000   0.000000
      4       0.000000   0.000000   0.000000   0.000000   0.000000   0.000000
      5       0.000000   0.000000   0.000000   0.000000   0.000000   0.000000
      6       0.000000   0.000000   0.000000   0.000000   0.000000   0.000000
      7       0.000000   0.000000   0.000000   0.000000   0.000000   0.000000
      8       0.000000   0.000000   0.000000   0.000000   0.000000   0.000000
      9       0.000000   0.000000   0.000000   0.000000   0.000000   0.000000
     10       0.000000   0.000000   0.000000   0.000000   0.000000   0.000000
     11       0.000000   0.000000   0.000000   0.000000   0.000000   0.000000
     12       0.000000   0.000000   0.000000   0.000000   0.000000   0.000000
     13       0.000000   0.000000   0.000000   0.000000   0.000000   0.000000
     14       0.000000   0.000000   0.000000   0.000000   0.000000   0.000000
     15       0.000000   0.000000   0.000000   0.000000   0.000000   0.000000
     16       0.000000   0.000000   0.000000   0.000000   0.000000   0.000000
     17       0.000000   0.000000   0.000000   0.000000   0.000000   0.000000
                  6          7          8          9         10         11    
      0      -0.005324   0.059721   0.064347  -0.000809  -0.020944  -0.006831
      1      -0.000308   0.040566  -0.252478  -0.003104   0.017663  -0.008527
      2       0.000727  -0.001147  -0.038468   0.049778  -0.036005   0.032678
      3       0.128660  -0.727120  -0.411468  -0.030744   0.127266   0.057429
      4       0.014266   0.110488  -0.219500   0.238244  -0.106817   0.078530
      5      -0.102039  -0.031259   0.183197  -0.706125   0.134096  -0.291451
      6      -0.078665  -0.034749  -0.020400   0.016608  -0.187999  -0.015263
      7       0.009805  -0.582146  -0.407651  -0.179188  -0.195655  -0.116398
      8       0.269148   0.148307   0.185008  -0.084928   0.610035   0.019587
      9      -0.212078  -0.054007   0.016518   0.141693   0.618737   0.095584
     10      -0.118030   0.226683   0.226583  -0.471498  -0.181653  -0.065547
     11      -0.133346  -0.019493   0.016919   0.031609   0.294276   0.064782
     12       0.075092  -0.053867  -0.090628  -0.015620   0.002397   0.014421
     13       0.012162  -0.060120   0.488686   0.051404  -0.001031  -0.030121
     14       0.010994  -0.002700   0.050961  -0.036238   0.004884  -0.072941
     15      -0.866184  -0.164261  -0.123470   0.145215   0.047521  -0.156752
     16      -0.089608  -0.047301   0.402310  -0.308075  -0.042262   0.843514
     17      -0.230599  -0.019446  -0.011928  -0.194970  -0.009552   0.360674
                 12         13         14         15         16         17    
      0       0.005578   0.011434   0.003617   0.027642   0.020016   0.000184
      1      -0.027467   0.012303   0.025832  -0.002552   0.004591  -0.000210
      2      -0.005539   0.001171   0.011336   0.011895  -0.025154  -0.000516
      3      -0.429076  -0.428375  -0.092391   0.012200   0.010027  -0.000588
      4       0.155289  -0.104599  -0.936469  -0.000821  -0.016505   0.001795
      5      -0.307600   0.362997  -0.329365   0.006975  -0.017368   0.002774
      6      -0.023983   0.018584   0.012433  -0.952695  -0.153832   0.001931
      7       0.713191   0.239528   0.034666   0.069910   0.009382  -0.002521
      8       0.303870   0.001993  -0.017172  -0.239990  -0.050023  -0.000360
      9       0.132691  -0.057388  -0.014510   0.091684  -0.473239  -0.001343
     10       0.248384  -0.752462   0.054226   0.029667  -0.153473  -0.001838
     11       0.121911  -0.166990  -0.017806  -0.139439   0.851134   0.004771
     12       0.009159   0.006342  -0.001193  -0.000256  -0.000046   0.010582
     13      -0.016228   0.007204   0.003863  -0.000912   0.000715   0.029710
     14       0.002969  -0.017632   0.001061   0.000333  -0.000562  -0.054087
     15       0.003596   0.015173   0.002244   0.003486   0.002710  -0.173619
     16      -0.015285   0.125158  -0.007526  -0.005860   0.008166  -0.462545
     17       0.004900   0.045890  -0.000823   0.001651  -0.001889   0.867144


-----------
IR SPECTRUM
-----------

 Mode   freq       eps      Int      T**2         TX        TY        TZ
       cm**-1   L/(mol*cm) km/mol    a.u.
----------------------------------------------------------------------------
  6:    268.00   0.017796   89.93  0.020722  (-0.138936 -0.018927 -0.032563)
  7:    566.95   0.002131   10.77  0.001173  ( 0.004482  0.033812  0.003078)
  8:    615.00   0.024881  125.74  0.012625  ( 0.015405 -0.110681 -0.011731)
  9:    713.02   0.007717   39.00  0.003377  ( 0.011007 -0.048718  0.029713)
 10:    964.13   0.002762   13.96  0.000894  (-0.011424  0.021082 -0.017866)
 11:   1010.69   0.019473   98.41  0.006013  (-0.011420  0.072246  0.025743)
 12:   1175.97   0.010193   51.51  0.002705  ( 0.007837 -0.051263 -0.003947)
 13:   1222.78   0.005116   25.85  0.001306  ( 0.014838  0.032879  0.002119)
 14:   2004.59   0.044619  225.49  0.006946  ( 0.005976  0.080956  0.018879)
 15:   2494.81   0.005904   29.84  0.000739  ( 0.025160 -0.006474  0.007974)
 16:   2529.64   0.004253   21.50  0.000525  ( 0.015503  0.003645 -0.016465)
 17:   3879.56   0.013779   69.63  0.001108  (-0.001969 -0.026062  0.020621)

* The epsilon (eps) is given for a Dirac delta lineshape.
** The dipole moment derivative (T) already includes vibrational overlap.

The first frequency considered to be a vibration is 6
The total number of vibrations considered is 12


--------------------------
THERMOCHEMISTRY AT 298.15K
--------------------------

Temperature         ...   298.15 K
Pressure            ...     1.00 atm
Total Mass          ...    51.01 AMU
Quasi RRHO          ...     True
Cut-Off Frequency   ...     1.00 cm^-1

Throughout the following assumptions are being made:
  (1) The electronic state is orbitally nondegenerate
      but the spin degeneracy is treated
  (2) There are no thermally accessible electronically excited states
  (3) Hindered rotations indicated by low frequency modes are not
      treated as such but are treated as vibrations and this may
      cause some error
  (4) All equations used are the standard statistical mechanics
      equations for an ideal gas
  (5) All vibrations are strictly harmonic

freq.     268.00  E(vib)   ...       0.29 
freq.     566.95  E(vib)   ...       0.11 
freq.     615.00  E(vib)   ...       0.10 
freq.     713.02  E(vib)   ...       0.07 
freq.     964.13  E(vib)   ...       0.03 
freq.    1010.69  E(vib)   ...       0.02 
freq.    1175.97  E(vib)   ...       0.01 
freq.    1222.78  E(vib)   ...       0.01 
freq.    2004.59  E(vib)   ...       0.00 
freq.    2494.81  E(vib)   ...       0.00 
freq.    2529.64  E(vib)   ...       0.00 
freq.    3879.56  E(vib)   ...       0.00 

------------
INNER ENERGY
------------

The inner energy is: U= E(el) + E(ZPE) + E(vib) + E(rot) + E(trans)
    E(el)   - is the total energy from the electronic structure calculation
              = E(kin-el) + E(nuc-el) + E(el-el) + E(nuc-nuc)
    E(ZPE)  - the the zero temperature vibrational energy from the frequency calculation
    E(vib)  - the the finite temperature correction to E(ZPE) due to population
              of excited vibrational states
    E(rot)  - is the rotational thermal energy
    E(trans)- is the translational thermal energy

Summary of contributions to the inner energy U:
Electronic energy                ...   -418.94299423 Eh
Zero point energy                ...      0.03974290 Eh      24.94 kcal/mol
Thermal vibrational correction   ...      0.00101238 Eh       0.64 kcal/mol
Thermal rotational correction    ...      0.00141627 Eh       0.89 kcal/mol
Thermal translational correction ...      0.00141627 Eh       0.89 kcal/mol
-----------------------------------------------------------------------
Total thermal energy                   -418.89940640 Eh


Summary of corrections to the electronic energy:
(perhaps to be used in another calculation)
Total thermal correction                  0.00384493 Eh       2.41 kcal/mol
Non-thermal (ZPE) correction              0.03974290 Eh      24.94 kcal/mol
-----------------------------------------------------------------------
Total correction                          0.04358783 Eh      27.35 kcal/mol


--------
ENTHALPY
--------

The enthalpy is H = U + kB*T
                kB is Boltzmann's constant
Total thermal energy              ...   -418.89940640 Eh 
Thermal Enthalpy correction       ...      0.00094421 Eh       0.59 kcal/mol
-----------------------------------------------------------------------
Total Enthalpy                    ...   -418.89846219 Eh


Note: Only C1 symmetry has been detected, increase convergence thresholds 
      if your molecule has a higher symmetry. Symmetry factor of 1.0 is   
      used for the rotational entropy correction. 
 

Note: Rotational entropy computed according to Herzberg 
Infrared and Raman Spectra, Chapter V,1, Van Nostrand Reinhold, 1945 
Point Group:  C1, Symmetry Number:   1  
Rotational constants in cm-1:     3.527750     0.417318     0.408308 

Vibrational entropy computed according to the QRRHO of S. Grimme
Chem.Eur.J. 2012 18 9955 using a reference frequency of 100.0 cm-1


-------
ENTROPY
-------

The entropy contributions are T*S = T*(S(el)+S(vib)+S(rot)+S(trans))
     S(el)   - electronic entropy
     S(vib)  - vibrational entropy
     S(rot)  - rotational entropy
     S(trans)- translational entropy
The entropies will be listed as multiplied by the temperature to get
units of energy

Electronic entropy                ...      0.00065446 Eh      0.41 kcal/mol
Vibrational entropy               ...      0.00148430 Eh      0.93 kcal/mol
Rotational entropy                ...      0.00975110 Eh      6.12 kcal/mol
Translational entropy             ...      0.01791774 Eh     11.24 kcal/mol
-----------------------------------------------------------------------
Final entropy term                ...      0.02980759 Eh     18.70 kcal/mol

In case the symmetry of your molecule has not been determined correctly
or in case you have a reason to use a different symmetry number we print 
out the resulting rotational entropy values for sn=1,12:

 non-linear molecules -----------------------------------
|  sn= 1 | S(rot)=       0.00975110 Eh      6.12 kcal/mol|
|  sn= 2 | S(rot)=       0.00909664 Eh      5.71 kcal/mol|
|  sn= 3 | S(rot)=       0.00871381 Eh      5.47 kcal/mol|
|  sn= 4 | S(rot)=       0.00844218 Eh      5.30 kcal/mol|
|  sn= 5 | S(rot)=       0.00823149 Eh      5.17 kcal/mol|
|  sn= 6 | S(rot)=       0.00805935 Eh      5.06 kcal/mol|
|  sn= 7 | S(rot)=       0.00791380 Eh      4.97 kcal/mol|
|  sn= 8 | S(rot)=       0.00778773 Eh      4.89 kcal/mol|
|  sn= 9 | S(rot)=       0.00767652 Eh      4.82 kcal/mol|
|  sn=10 | S(rot)=       0.00757704 Eh      4.75 kcal/mol|
|  sn=11 | S(rot)=       0.00748705 Eh      4.70 kcal/mol|
|  sn=12 | S(rot)=       0.00740489 Eh      4.65 kcal/mol|
 linear molecules ---------------------------------------
|  Dinfh | S(rot)=       0.00617154 Eh      3.87 kcal/mol|
|  Cinfv | S(rot)=       0.00682600 Eh      4.28 kcal/mol|
 --------------------------------------------------------


-------------------
GIBBS FREE ENERGY
-------------------

The Gibbs free energy is G = H - T*S

Total enthalpy                    ...   -418.89846219 Eh 
Total entropy correction          ...     -0.02980759 Eh    -18.70 kcal/mol
-----------------------------------------------------------------------
Final Gibbs free energy         ...   -418.92826978 Eh

For completeness - the Gibbs free energy minus the electronic energy
G-E(el)                           ...      0.01472445 Eh      9.24 kcal/mol


Maximum memory used throughout the entire PROP-calculation: 49.0 MB

--------------------------------
SUGGESTED CITATIONS FOR THIS RUN
--------------------------------

Below you find a list of papers that are relevant to this ORCA run
We neither can nor want to force you to cite these papers, but we appreciate if you do
You receive ORCA, which is the product of decades of hard work by many enthusiastic individuals, for free
The only thing we kindly ask in return is that you cite our papers,
We deeply appreciate it, if you show your appreciation for ORCA by not just citing the generic ORCA reference.

Please note that relegating all ORCA citations to the supporting information does *not* help us.
SI sections are not indexed - citations you put there will not count into any citation statistics
But we need these citations in order to attract the funding resources that allow us to do what we are doing

Therefore, if you are a happy ORCA user, please consider citing a few of the papers listed below in the main body of your paper

In addition to the list printed below, the program has created the file ph3oh-reac.bibtex that contains the list in bibtex format
You can import this file easily into all common literature databanks and citation aid programs


List of essential papers. We consider these as the minimum necessary citations

  1. Neese,F.
     Software update: the ORCA program system, version 5.0
     WIRES Comput. Molec. Sci., 2022 12(1)e1606
     doi.org/10.1002/wcms.1606

List of papers to cite with high priority. The work reported in these papers was absolutely
necessary for this run to complete.
Our perspective: the developers of density functionals and basis sets usually get cited in chemistry papers
Good! But without the algorithms to do something with them, the functionals or basis sets would not do anything.
Hence, in our opinion, the algorithm design and method developments papers are equally worthy of getting cited

  1. Neese,F.
     An improvement of the resolution of the identity approximation for the formation of the Coulomb matrix
     J. Comp. Chem., 2003 24(14)1740-1747
     doi.org/10.1002/jcc.10318
  2. Neese,F.; Wennmohs,F.; Hansen,A.; Becker,U.
     Efficient, approximate and parallel Hartree-Fock and hybrid DFT calculations. A 'chain-of-spheres' algorithm for the Hartree-Fock exchange
     Chem. Phys., 2009 356(1-3)98-109
     doi.org/10.1016/j.chemphys.2008.10.036
  3. Bykov,D.; Petrenko,T.; Izsak,R.; Kossmann,S.; Becker,U.; Valeev,E.; Neese,F.
     Efficient implementation of the analytic second derivatives of Hartree-Fock and hybrid DFT energies: a detailed analysis of different approximations
     Molec. Phys., 2015 113 1961-1977
     doi.org/10.1080/00268976.2015.1025114
  4. Helmich-Paris,B.; de Souza,B.; Neese,F.; Izsák,R.
     An improved chain of spheres for exchange algorithm
     J. Chem. Phys., 2021 155 104109
     doi.org/doi: 10.1063/5.0058766.
  5. Neese,F.
     The SHARK Integral Generation and Digestion System
     J. Comp. Chem., 2022  1-16
     doi.org/10.1002/jcc.26942
  6. Grimme,S.; Antony,J.; Ehrlich,S.; Krieg,H.
     A consistent and accurate ab initio parametrization of density functional dispersion correction (DFT-D) for the 94 elements H-Pu
     J. Chem. Phys., 2010 132 154104
     doi.org/10.1063/1.3382344

List of suggested additional citations. These are papers that are important in the 'surrounding' of 
of this run, or papers that preceded the highly important papers. If you like your results we are grateful for a citation.

  1. Izsak,R.; Neese,F.
     An overlap fitted chain of spheres exchange method
     J. Chem. Phys., 2011 135 144105
     doi.org/10.1063/1.3646921
  2. Izsak,R.; Hansen,A.; Neese,F.
     The resolution of identity and chain of spheres approximations for the LPNO-CCSD singles Fock term
     Molec. Phys., 2012 110 2413-2417
     doi.org/10.1080/00268976.2012.687466
  3. Neese,F.
     The ORCA program system
     WIRES Comput. Molec. Sci., 2012 2(1)73-78
     doi.org/10.1002/wcms.81
  4. Izsak,R.; Neese,F.; Klopper,W.
     Robust fitting techniques in the chain of spheres approximation to the Fock exchange: The role of the complementary space
     J. Chem. Phys., 2013 139 
     doi.org/10.1063/1.4819264
  5. Neese,F.
     Software update: the ORCA program system, version 4.0
     WIRES Comput. Molec. Sci., 2018 8(1)1-6
     doi.org/10.1002/wcms.1327
  6. Neese,F.; Wennmohs,F.; Becker,U.; Riplinger,C.
     The ORCA quantum chemistry program package
     J. Chem. Phys., 2020 152 Art. No. L224108
     doi.org/10.1063/5.0004608

List of optional additional citations

  1. Neese,F.
     Approximate second-order SCF convergence for spin unrestricted wavefunctions
     Chem. Phys. Lett., 2000 325(1-3)93-98
     doi.org/10.1016/s0009-2614(00)00662-x

Timings for individual modules:

Sum of individual times          ...      717.154 sec (=  11.953 min)
Startup calculation              ...      134.807 sec (=   2.247 min)  18.8 %
SCF iterations                   ...      338.639 sec (=   5.644 min)  47.2 %
Property integrals               ...       70.944 sec (=   1.182 min)   9.9 %
SCF Response                     ...        9.839 sec (=   0.164 min)   1.4 %
Property calculations            ...       22.836 sec (=   0.381 min)   3.2 %
SCF Gradient evaluation          ...      139.810 sec (=   2.330 min)  19.5 %
Geometry relaxation              ...        0.278 sec (=   0.005 min)   0.0 %
                             ****ORCA TERMINATED NORMALLY****
TOTAL RUN TIME: 0 days 0 hours 12 minutes 54 seconds 932 msec
