
                                 *****************
                                 * O   R   C   A *
                                 *****************

                                            #,                                       
                                            ###                                      
                                            ####                                     
                                            #####                                    
                                            ######                                   
                                           ########,                                 
                                     ,,################,,,,,                         
                               ,,#################################,,                 
                          ,,##########################################,,             
                       ,#########################################, ''#####,          
                    ,#############################################,,   '####,        
                  ,##################################################,,,,####,       
                ,###########''''           ''''###############################       
              ,#####''   ,,,,##########,,,,          '''####'''          '####       
            ,##' ,,,,###########################,,,                        '##       
           ' ,,###''''                  '''############,,,                           
         ,,##''                                '''############,,,,        ,,,,,,###''
      ,#''                                            '''#######################'''  
     '                                                          ''''####''''         
             ,#######,   #######,   ,#######,      ##                                
            ,#'     '#,  ##    ##  ,#'     '#,    #''#        ,####,   ,####,        
            ##       ##  ##   ,#'  ##            #'  '#       #'       #'  '#        
            ##       ##  #######   ##           ,######,      #####,   #    #        
            '#,     ,#'  ##    ##  '#,     ,#' ,#      #,     #,   #   #,  ,#        
             '#######'   ##     ##  '#######'  #'      '#     '####' # '####'        



                #########################################################
                #                        -***-                          #
                #          Department of theory and spectroscopy        #
                #                                                       #
                #                      Frank Neese                      #
                #                                                       #
                #     Directorship, Architecture, Infrastructure        #
                #                    SHARK, DRIVERS                     #
                #        Core code/Algorithms in most modules           #
                #                                                       #
                #        Max Planck Institute fuer Kohlenforschung      #
                #                Kaiser Wilhelm Platz 1                 #
                #                 D-45470 Muelheim/Ruhr                 #
                #                      Germany                          #
                #                                                       #
                #                  All rights reserved                  #
                #                        -***-                          #
                #########################################################


                         Program Version 6.0.1  -  RELEASE   -


 With contributions from (in alphabetic order):
[Max-Planck-Institut fuer Kohlenforschung]                               
  Daniel Aravena         : Magnetic Suceptibility                        
  Michael Atanasov       : Ab Initio Ligand Field Theory (pilot matlab implementation)
  Alexander A. Auer      : GIAO ZORA, VPT2 properties, NMR spectrum      
  Ute Becker             : All parallelization in ORCA, NUMFREQ, NUMCALC 
  Giovanni Bistoni       : ED, misc. LED, open-shell LED, HFLD           
  Martin Brehm           : Molecular dynamics                            
  Dmytro Bykov           : pre 5.0 version of the SCF Hessian            
  Marcos Casanova-Páez   : Triplet and SCS-CIS(D). UHF-(DLPNO)-IP/EA/STEOM-CCSD. UHF-CVS-IP/STEOM-CCSD   
  Vijay G. Chilkuri      : MRCI spin determinant printing, contributions to CSF-ICE 
  Pauline Colinet        : FMM embedding                                 
  Dipayan Datta          : RHF DLPNO-CCSD density                        
  Achintya Kumar Dutta   : EOM-CC, STEOM-CC                              
  Nicolas Foglia         : Exact transition moments, OPA infrastructure, MCD improvements    
  Dmitry Ganyushin       : Spin-Orbit,Spin-Spin,Magnetic field MRCI      
  Miquel Garcia-Rates    : C-PCM and meta-GGA Hessian, CCSD/C-PCM, Gaussian charge scheme 
  Tiago L. C. Gouveia    : GS-ROHF, GS-ROCIS                             
  Yang Guo               : DLPNO-NEVPT2, F12-NEVPT2, CIM, IAO-localization        
  Andreas Hansen         : Spin unrestricted coupled pair/coupled cluster methods 
  Ingolf Harden          : AUTO-CI MPn and infrastructure                
  Benjamin Helmich-Paris : MC-RPA, TRAH-(SCF,CASSCF), AVAS, COSX integrals, SCF dyn. polar. 
  Lee Huntington         : MR-EOM, pCC                                   
  Robert Izsak           : Overlap fitted RIJCOSX, COSX-SCS-MP3, EOM     
  Riya Kayal             : Wick's Theorem for AUTO-CI, AUTO-CI UHF-CCSDT 
  Emily Kempfer          : AUTO-CI, RHF CISDT and CCSDT                  
  Christian Kollmar      : KDIIS, OOCD, Brueckner-CCSD(T), CCSD density, CASPT2, CASPT2-K, improved NEVPT2 
  Axel Koslowski         : Symmetry handling                             
  Simone Kossmann        : meta-GGA functionals, TD-DFT gradient, OOMP2, (MP2 Hessian; deprecated post 5.0) 
  Lucas Lang             : DCDCAS                                        
  Marvin Lechner         : AUTO-CI (C++ implementation), FIC-MRCC        
  Spencer Leger          : CASSCF response                               
  Dagmar Lenk            : GEPOL surface, SMD, ORCA-2-JSON               
  Dimitrios Liakos       : Extrapolation schemes; Compound Job, initial MDCI parallelization 
  Dimitrios Manganas     : Further ROCIS development; embedding schemes. LFT, Crystal Embedding 
  Dimitrios Pantazis     : SARC Basis sets                               
  Anastasios Papadopoulos: AUTO-CI, single reference methods and gradients 
  Taras Petrenko         : pre 6.0 DFT Hessian and TD-DFT gradient, (ASA, deprecated), ECA, 1-Electron XAS/XES, NRVS 
  Peter Pinski           : DLPNO-MP2, DLPNO-MP2 Gradient                 
  Christoph Reimann      : Effective Core Potentials                     
  Marius Retegan         : Local ZFS, SOC                                
  Christoph Riplinger    : Optimizer, TS searches, QM/MM, DLPNO-CCSD(T), (RO)-DLPNO pert. Triples 
  Michael Roemelt        : Original ROCIS implementation                 
  Masaaki Saitow         : Open-shell DLPNO-CCSD energy and density      
  Barbara Sandhoefer     : DKH picture change effects                    
  Kantharuban Sivalingam : CASSCF convergence/infrastructure, NEVPT2 and variants, FIC-MRCI 
  Bernardo de Souza      : ESD, SOC TD-DFT                               
  Georgi L. Stoychev     : AutoAux, RI-MP2 NMR, DLPNO-MP2 response, X2C  
  Van Anh Tran           : RI-MP2 g-tensors                              
  Willem Van den Heuvel  : Paramagnetic NMR                              
  Zikuan Wang            : NOTCH, Electric field optimization            
  Frank Wennmohs         : Technical directorship and infrastructure     
  Hang Xu                : AUTO-CI-Response properties                   
                                                                         
[FACCTs GmbH]                                                            
  Markus Bursch, Miquel Garcia-Rates, Christoph Riplinger, Bernardo de Souza, Georgi L. Stoychev 
                                                                 
  APM, Basis sets (HGBS, AHGBS, def-TZVP (Ac-Lr), def2-XVPD (La-Lu)), CI-OPT, improved COSX, DLPNO-Multilevel,           
  DOCKER, DRACO, updates on ESD, GOAT, IRC, LR-CPCM, MBIS, meta-GGA TD-DFT gradient, ML-optimized integration grids, 
  MM, NACMEs, nearIR, NEB, NEB-TS, NL-DFT gradient (VV10), 2- and 3-layer-ONIOM, interface openCOSMO-RS, QMMM,   
  Crystal-QMMM, SF, symmetry and pop. for TD-DFT, r2SCAN hybrids, SOLVATOR                                   
                                                                         
[Other institutions]                                                     
  V. Asgeirsson          : NEB                                           
  Christoph Bannwarth    : sTDA-DFT, sTD-DFT, PBEh-3c, B97-3c, D3        
  Sebastian Ehlert       : rSCAN, r2SCAN, r2SCAN-3c, D4, dhf basis sets  
  Marvin Friede          : D4 for Fr, Ra, Ac-Lr                          
  Lars Goerigk           : TD-DFT with DH, B97 family of functionals     
  Stefan Grimme          : VdW corrections, initial TS optimization, DFT functionals, gCP, sTDA/sTD-DF 
  Waldemar Hujo          : DFT-NL                                        
  H. Jonsson             : NEB                                           
  Holger Kruse           : gCP                                           
  Marcel Mueller         : wB97X-3c, vDZP basis set                      
  Hagen Neugebauer       : wr2SCAN                                       
  Tobias Risthaus        : range-separated hybrid DFT                    
  Lukas Wittmann         : regularized MP2, r2SCAN double-hybrids, wr2SCAN        
                                                                         
We gratefully acknowledge several colleagues who have allowed us to      
interface, adapt or use parts of their codes:                            
  Ed Valeev, F. Pavosevic, A. Kumar             : LibInt (2-el integral package), F12 methods 
  Garnet Chan, S. Sharma, J. Yang, R. Olivares  : DMRG                   
  Ulf Ekstrom                                   : XCFun DFT Library      
  Mihaly Kallay                                 : mrcc  (arbitrary order and MRCC methods)
  Frank Weinhold                                : gennbo (NPA and NBO analysis)           
  Simon Mueller                                 : openCOSMO-RS                            
  Christopher J. Cramer and Donald G. Truhlar   : smd solvation model                     
  S Lehtola, MJT Oliveira, MAL Marques          : LibXC Library                           
  Liviu Ungur et al                             : ANISO software                          


 Your calculation uses the libint2 library for the computation of 2-el integrals
 For citations please refer to: http://libint.valeyev.net

 Your ORCA version has been built with support for libXC version: 6.2.2
 For citations please refer to: https://libxc.gitlab.io

 This ORCA versions uses:
   CBLAS   interface :  Fast vector & matrix operations
   LAPACKE interface :  Fast linear algebra routines
   SCALAPACK package :  Parallel linear algebra routines
   Shared memory     :  Shared parallel matrices
   BLAS/LAPACK       :  OpenBLAS 0.3.27  USE64BITINT DYNAMIC_ARCH NO_AFFINITY Zen SINGLE_THREADED
        Core in use  :  Zen
   Copyright (c) 2011-2014, The OpenBLAS Project


NOTE: MaxCore=2000 MB was set to SCF,MP2,MDCI,CIPSI,MRCI and CIS
      => If you want to overwrite this, your respective input block should be placed after the MaxCore statement
Your calculation utilizes the atom-pairwise dispersion correction
with the zero-damping scheme (D30)


XCFun DFT library Copyright 2009-2010 Ulf Ekstrom and contributors.
See http://admol.org/xcfun for more information.
This is free software; see the source code for copying conditions.
There is ABSOLUTELY NO WARRANTY; not even for MERCHANTABILITY or FITNESS FOR A PARTICULAR PURPOSE.
For details see the documentation.
Scientific users of this library should cite U. Ekstrom, L. Visscher, R. Bast, A. J. Thorvaldsen and K. Ruud;
J.Chem.Theor.Comp. 2010, DOI: 10.1021/ct100117s
XCFun Version 0.99 

Warning: RI is on but no J-basis has been assigned. Assigning Def2/J (nothing to worry about!)
================================================================================

----- Orbital basis set information -----
Your calculation utilizes the basis: aug-cc-pVTZ 
    H, B-Ne : Obtained from the ccRepo (grant-hill.group.shef.ac.uk/ccrepo) Feb. 2017
              R. A. Kendall, T. H. Dunning, Jr., R. J. Harrison, J. Chem. Phys. 96, 6796 (1992)
         He : Obtained from the ccRepo (grant-hill.group.shef.ac.uk/ccrepo) Feb. 2017
              D. E. Woon, T. H. Dunning, Jr., J. Chem. Phys. 100, 2975 (1994)
  Li-Be, Na : Obtained from the ccRepo (grant-hill.group.shef.ac.uk/ccrepo) Feb. 2017
              B. P. Prascher, D. E. Woon, K. A. Peterson, T. H. Dunning, Jr., A. K. Wilson, Theor. Chem. Acc. 128, 69 (2011)
         Mg : Obtained from the Peterson Research Group Website (tyr0.chem.wsu.edu/~kipeters) Feb. 2017
              B. P. Prascher, D. E. Woon, K. A. Peterson, T. H. Dunning, Jr., A. K. Wilson, Theor. Chem. Acc. 128, 69 (2011)
      Al-Ar : Obtained from the ccRepo (grant-hill.group.shef.ac.uk/ccrepo) Feb. 2017
              D. E. Woon, T. H. Dunning, Jr., J. Chem. Phys. 98, 1358 (1993)
      Sc-Zn : Obtained from the ccRepo (grant-hill.group.shef.ac.uk/ccrepo) Feb. 2017
              N. B. Balabanov, K. A. Peterson, J. Chem. Phys. 123, 064107 (2005)
              N. B. Balabanov, K. A. Peterson, J. Chem. Phys. 125, 074110 (2006)
      Ga-Kr : Obtained from the ccRepo (grant-hill.group.shef.ac.uk/ccrepo) Feb. 2017
              A. K. Wilson, D. E. Woon, K. A. Peterson, T. H. Dunning, Jr., J. Chem. Phys. 110, 7667 (1999)
     Ag, Au : Obtained from the Peterson Research Group Website (tyr0.chem.wsu.edu/~kipeters) Feb. 2017
              K. A. Peterson, C. Puzzarini, Theor. Chem. Acc. 114, 283 (2005)

The basis set includes element-specific modifications.

----- AuxJ basis set information -----
Your calculation utilizes the auxiliary basis: def2/J
   F. Weigend, Phys. Chem. Chem. Phys. 8, 1057 (2006).

================================================================================
                                        WARNINGS
                       Please study these warnings very carefully!
================================================================================


WARNING: your system is open-shell and RHF/RKS was chosen
  ===> : WILL SWITCH to UHF/UKS


================================================================================
                                       INPUT FILE
================================================================================
NAME = test.inp
|  1> ! wB97X-D3 aug-cc-pVTZ EnGrad Freq
|  2> 
|  3> %pal nprocs=32 end
|  4> %maxcore 2000
|  5> 
|  6> %basis
|  7>   NewGTO 15
|  8> S   15
|  9> 1         3.124000E+05           5.769600E-05
| 10> 2         4.680000E+04           4.482960E-04
| 11> 3         1.065000E+04           2.349390E-03
| 12> 4         3.018000E+03           9.782650E-03
| 13> 5         9.868000E+02           3.414670E-02
| 14> 6         3.574000E+02           1.002040E-01
| 15> 7         1.396000E+02           2.343720E-01
| 16> 8         5.763000E+01           3.824340E-01
| 17> 9         2.460000E+01           3.180880E-01
| 18> 10        1.012000E+01           7.077880E-02
| 19> 11        4.283000E+00          -1.817990E-03
| 20> 12        1.805000E+00           2.161800E-03
| 21> 13        6.158000E-01          -8.347420E-04
| 22> 14        2.782000E-01           4.322970E-04
| 23> 15        1.055000E-01          -1.142510E-04
| 24> S   15
| 25> 1         3.124000E+05          -1.567090E-05
| 26> 2         4.680000E+04          -1.217240E-04
| 27> 3         1.065000E+04          -6.396720E-04
| 28> 4         3.018000E+03          -2.674260E-03
| 29> 5         9.868000E+02          -9.498310E-03
| 30> 6         3.574000E+02          -2.893490E-02
| 31> 7         1.396000E+02          -7.451210E-02
| 32> 8         5.763000E+01          -1.499380E-01
| 33> 9         2.460000E+01          -1.894670E-01
| 34> 10        1.012000E+01           3.632700E-02
| 35> 11        4.283000E+00           5.288160E-01
| 36> 12        1.805000E+00           5.191150E-01
| 37> 13        6.158000E-01           6.055470E-02
| 38> 14        2.782000E-01          -9.256950E-03
| 39> 15        1.055000E-01           2.103720E-03
| 40> S   1
| 41> 1         6.158000E-01           1.000000E+00
| 42> S   15
| 43> 1         3.124000E+05           4.306310E-06
| 44> 2         4.680000E+04           3.341940E-05
| 45> 3         1.065000E+04           1.758850E-04
| 46> 4         3.018000E+03           7.343400E-04
| 47> 5         9.868000E+02           2.617750E-03
| 48> 6         3.574000E+02           7.978520E-03
| 49> 7         1.396000E+02           2.079400E-02
| 50> 8         5.763000E+01           4.244460E-02
| 51> 9         2.460000E+01           5.634360E-02
| 52> 10        1.012000E+01          -1.273580E-02
| 53> 11        4.283000E+00          -1.964950E-01
| 54> 12        1.805000E+00          -3.535550E-01
| 55> 13        6.158000E-01           7.414070E-02
| 56> 14        2.782000E-01           7.009120E-01
| 57> 15        1.055000E-01           4.047390E-01
| 58> S   1
| 59> 1         1.055000E-01           1.000000E+00
| 60> S   1
| 61> 1         0.0409000              1.0000000
| 62> P   9
| 63> 1         5.049000E+02           2.337280E-03
| 64> 2         1.194000E+02           1.854100E-02
| 65> 3         3.796000E+01           8.496930E-02
| 66> 4         1.395000E+01           2.446150E-01
| 67> 5         5.457000E+00           4.227660E-01
| 68> 6         2.177000E+00           3.684390E-01
| 69> 7         8.010000E-01           7.727340E-02
| 70> 8         2.877000E-01          -3.790050E-03
| 71> 9         9.714000E-02           1.599390E-03
| 72> P   1
| 73> 1         8.010000E-01           1.000000E+00
| 74> P   9
| 75> 1         5.049000E+02          -5.552360E-04
| 76> 2         1.194000E+02          -4.459130E-03
| 77> 3         3.796000E+01          -2.063500E-02
| 78> 4         1.395000E+01          -6.176940E-02
| 79> 5         5.457000E+00          -1.089240E-01
| 80> 6         2.177000E+00          -1.055990E-01
| 81> 7         8.010000E-01           1.534830E-01
| 82> 8         2.877000E-01           5.769810E-01
| 83> 9         9.714000E-02           4.224390E-01
| 84> P   1
| 85> 1         9.714000E-02           1.000000E+00
| 86> P   1
| 87> 1         0.0307000              1.0000000
| 88> D   1
| 89> 1         3.120000E+00           1.000000E+00
| 90> D   1
| 91> 1         6.480000E-01           1.000000E+00
| 92> D   1
| 93> 1         2.180000E-01           1.000000E+00
| 94> D   1
| 95> 1         0.0775000              1.0000000
| 96> F   1
| 97> 1         4.520000E-01           1.0000000
| 98> F   1
| 99> 1         0.1650000              1.0000000
|100>   end
|101> end
|102> 
|103> *xyz 0 2
|104> P     1.221977000000     -0.707832000000      1.970483000000
|105> H     1.337829000000      0.661798000000      2.407387000000
|106> H    -0.119738000000     -0.631392000000      1.579668000000
|107> H     1.885287000000     -0.540955000000      0.752842000000
|108> O     1.403650000000     -2.678708000000      1.813496000000
|109> H     1.285828000000     -3.019018000000      2.705699000000
|110> *
|111> 
|112>                          ****END OF INPUT****
================================================================================

                     *******************************
                     * Energy+Gradient Calculation *
                     *******************************

---------------------------------
CARTESIAN COORDINATES (ANGSTROEM)
---------------------------------
  P      1.221977   -0.707832    1.970483
  H      1.337829    0.661798    2.407387
  H     -0.119738   -0.631392    1.579668
  H      1.885287   -0.540955    0.752842
  O      1.403650   -2.678708    1.813496
  H      1.285828   -3.019018    2.705699

----------------------------
CARTESIAN COORDINATES (A.U.)
----------------------------
  NO LB      ZA    FRAG     MASS         X           Y           Z
   0 P    15.0000    0    30.974    2.309202   -1.337609    3.723673
   1 H     1.0000    0     1.008    2.528130    1.250617    4.549302
   2 H     1.0000    0     1.008   -0.226272   -1.193158    2.985140
   3 H     1.0000    0     1.008    3.562676   -1.022257    1.422665
   4 O     8.0000    0    15.999    2.652514   -5.062025    3.427011
   5 H     1.0000    0     1.008    2.429863   -5.705117    5.113030

--------------------------------
INTERNAL COORDINATES (ANGSTROEM)
--------------------------------
 P      0   0   0     0.000000000000     0.00000000     0.00000000
 H      1   0   0     1.442287463726     0.00000000     0.00000000
 H      1   2   0     1.399563710250    96.29965009     0.00000000
 H      1   2   3     1.396595035832    96.45884555   102.73225595
 O      1   2   3     1.985447608091   163.58821978   216.71711643
 H      5   1   2     0.962142979496   105.46072796    45.48983501

---------------------------
INTERNAL COORDINATES (A.U.)
---------------------------
 P      0   0   0     0.000000000000     0.00000000     0.00000000
 H      1   0   0     2.725528312829     0.00000000     0.00000000
 H      1   2   0     2.644792119348    96.29965009     0.00000000
 H      1   2   3     2.639182137716    96.45884555   102.73225595
 O      1   2   3     3.751952232541   163.58821978   216.71711643
 H      5   1   2     1.818186732922   105.46072796    45.48983501

---------------------
BASIS SET INFORMATION
---------------------
There are 3 groups of distinct atoms

 Group   1 Type P   : 48s21p4d2f contracted to 6s5p4d2f pattern {151511511/91911/1111/11}
 Group   2 Type H   : 6s3p2d contracted to 4s3p2d pattern {3111/111/11}
 Group   3 Type O   : 19s6p3d2f contracted to 5s4p3d2f pattern {88111/3111/111/11}

Atom   0P    basis set group =>   1
Atom   1H    basis set group =>   2
Atom   2H    basis set group =>   2
Atom   3H    basis set group =>   2
Atom   4O    basis set group =>   3
Atom   5H    basis set group =>   2
---------------------------------
AUXILIARY/J BASIS SET INFORMATION
---------------------------------
There are 3 groups of distinct atoms

 Group   1 Type P   : 14s5p5d2f1g contracted to 8s4p3d1f1g pattern {71111111/2111/311/2/1}
 Group   2 Type H   : 5s2p1d contracted to 3s1p1d pattern {311/2/1}
 Group   3 Type O   : 12s5p4d2f1g contracted to 6s4p3d1f1g pattern {711111/2111/211/2/1}

Atom   0P    basis set group =>   1
Atom   1H    basis set group =>   2
Atom   2H    basis set group =>   2
Atom   3H    basis set group =>   2
Atom   4O    basis set group =>   3
Atom   5H    basis set group =>   2

Checking for AutoStart:
The File: test.gbw exists
Trying to determine its content:
     ... Fine, the file contains calculation information
     ... Fine, the calculation information was read
     ... Fine, the file contains a basis set
     ... Fine, the basis set was read
     ... Fine, the file contains a geometry
     ... Fine, the geometry was read
     ... Fine, the file contains a set of orbitals
     ... Fine, the orbitals can be read
     => possible old guess file was deleted
     => GBW file was renamed to GES file
     => GES file is set as startup file
     => Guess is set to MORead
     ... now leaving AutoStart



           ************************************************************
           *        Program running with 32 parallel MPI-processes    *
           *              working on a common directory               *
           ************************************************************
------------------------------------------------------------------------------
                             ORCA STARTUP CALCULATIONS
                           -- RI-GTO INTEGRALS CHOSEN --
------------------------------------------------------------------------------
------------------------------------------------------------------------------
                   ___                                                        
                  /   \      - P O W E R E D   B Y -                         
                 /     \                                                     
                 |  |  |   _    _      __       _____    __    __             
                 |  |  |  | |  | |    /  \     |  _  \  |  |  /  |          
                  \  \/   | |  | |   /    \    | | | |  |  | /  /          
                 / \  \   | |__| |  /  /\  \   | |_| |  |  |/  /          
                |  |  |   |  __  | /  /__\  \  |    /   |      \           
                |  |  |   | |  | | |   __   |  |    \   |  |\   \          
                \     /   | |  | | |  |  |  |  | |\  \  |  | \   \       
                 \___/    |_|  |_| |__|  |__|  |_| \__\ |__|  \__/        
                                                                              
                      - O R C A' S   B I G   F R I E N D -                    
                                      &                                       
                       - I N T E G R A L  F E E D E R -                       
                                                                              
 v1 FN, 2020, v2 2021, v3 2022-2024                                           
------------------------------------------------------------------------------


----------------------
SHARK INTEGRAL PACKAGE
----------------------

Number of atoms                             ...      6
Number of basis functions                   ...    212
Number of shells                            ...     86
Maximum angular momentum                    ...      3
Integral batch strategy                     ... SHARK/LIBINT Hybrid
RI-J (if used) integral strategy            ... SPLIT-RIJ (Revised 2003 algorithm where possible)
Printlevel                                  ...      1
Contraction scheme used                     ... PARTIAL GENERAL contraction
Prescreening option                         ... SCHWARTZ
   Thresh                                   ... 2.500e-11
   Tcut                                     ... 2.500e-12
   Tpresel                                  ... 2.500e-12 
Coulomb Range Separation                    ... NOT USED
Exchange Range Separation                   ... Long Range
   Mu parameter                             ... 2.500e-01
   Scaling (regular/separated)              ... 1.957e-01 8.043e-01
Multipole approximations                    ... NOT USED
Finite Nucleus Model                        ... NOT USED
CABS basis                                  ... NOT available
Auxiliary Coulomb fitting basis             ... AVAILABLE
   # of basis functions in Aux-J            ...    144
   # of shells in Aux-J                     ...     52
   Maximum angular momentum in Aux-J        ...      4
Auxiliary J/K fitting basis                 ... NOT available
Auxiliary Correlation fitting basis         ... NOT available
Auxiliary 'external' fitting basis          ... NOT available

Checking pre-screening integrals            ... done (  0.0 sec) Dimension = 86
Save PGC pre-screening integrals            ... done (  0.0 sec) Dimension = 86
Calculate PGC overlap integrals             ... done (  0.0 sec) Dimension = 67
Calculating pre-screening integrals (ORCA)  ... done (  0.2 sec) Dimension = 67
Check shell pair data                       ... done (  0.0 sec)
Shell pair information
Shell pair cut-off parameter TPreSel        ...   2.5e-12
Total number of shell pairs                 ...      3741
Shell pairs after pre-screening             ...      3568
Total number of primitive shell pairs       ...      8193
Primitive shell pairs kept                  ...      7405
          la=0 lb=0:    974 shell pairs
          la=1 lb=0:    927 shell pairs
          la=1 lb=1:    229 shell pairs
          la=2 lb=0:    668 shell pairs
          la=2 lb=1:    314 shell pairs
          la=2 lb=2:    120 shell pairs
          la=3 lb=0:    182 shell pairs
          la=3 lb=1:     84 shell pairs
          la=3 lb=2:     60 shell pairs
          la=3 lb=3:     10 shell pairs

Calculating one electron integrals          ... done (  0.0 sec)
Calculating RI/J V-Matrix + Cholesky decomp.... done (  0.0 sec)
Calculating Nuclear repulsion               ... done (  0.0 sec) ENN=     62.380720373006 Eh

Diagonalization of the overlap matrix:
Smallest eigenvalue                        ... 1.082e-04
Time for diagonalization                   ...    0.005 sec
Threshold for overlap eigenvalues          ... 1.000e-07
Number of eigenvalues below threshold      ... 0
Time for construction of square roots      ...    0.003 sec
Total time needed                          ...    0.009 sec

-------------------
DFT GRID GENERATION
-------------------

General Integration Accuracy     IntAcc      ... 4.388
Radial Grid Type                 RadialGrid  ... OptM3 with GC (2021)
Angular Grid (max. ang.)         AngularGrid ... 4 (Lebedev-302)
Angular grid pruning method      GridPruning ... 4 (adaptive)
Weight generation scheme         WeightScheme... mBecke (2022)
Basis function cutoff            BFCut       ... 1.0000e-11
Integration weight cutoff        WCut        ... 1.0000e-14
Partially contracted basis set               ... off
Rotationally invariant grid construction     ... off
Angular grids for H and He will be reduced by one unit
Diffuse basis detected: some atoms will have their outermost
                        angular grid increased by 1.

Total number of grid points                  ...    28182
Total number of batches                      ...      443
Average number of points per batch           ...       63
Average number of grid points per atom       ...     4697

---------------------
SHARK GRID GENERATION
---------------------

General Integration Accuracy     IntAcc      ... 4.388
Radial Grid Type                 RadialGrid  ... OptM3 with GC (2021)
Angular Grid (max. ang.)         AngularGrid ... 4 (Lebedev-302)
Angular grid pruning method      GridPruning ... 4 (adaptive)
Weight generation scheme         WeightScheme... mBecke (2022)
Basis function cutoff            BFCut       ... 1.0000e-11
Integration weight cutoff        WCut        ... 1.0000e-14
Partially contracted basis set               ... off
Rotationally invariant grid construction     ... off
Angular grids for H and He will be reduced by one unit
Diffuse basis detected: some atoms will have their outermost
                        angular grid increased by 1.
Steep s-basis detected: some atoms will have their radial
                        grid points doubled.

Total number of grid points                  ...    42537
Total number of batches                      ...      668
Average number of points per batch           ...       63
Average number of grid points per atom       ...     7090

--------------------
COSX GRID GENERATION
--------------------

GRIDX 1
-------
General Integration Accuracy     IntAcc      ... 3.816
Radial Grid Type                 RadialGrid  ... OptM3 with GC (2021)
Angular Grid (max. ang.)         AngularGrid ... 1 (Lebedev-50)
Angular grid pruning method      GridPruning ... 4 (adaptive)
Weight generation scheme         WeightScheme... mBecke (2022)
Basis function cutoff            BFCut       ... 1.0000e-11
Integration weight cutoff        WCut        ... 1.0000e-14
Partially contracted basis set               ... on
Rotationally invariant grid construction     ... off
Angular grids for H and He will be reduced by one unit
Diffuse basis detected: some atoms will have their outermost
                        angular grid increased by 1.

Total number of grid points                  ...     4791
Total number of batches                      ...       40
Average number of points per batch           ...      119
Average number of grid points per atom       ...      798
UseSFitting                                  ... on

GRIDX 2
-------
General Integration Accuracy     IntAcc      ... 4.020
Radial Grid Type                 RadialGrid  ... OptM3 with GC (2021)
Angular Grid (max. ang.)         AngularGrid ... 2 (Lebedev-110)
Angular grid pruning method      GridPruning ... 4 (adaptive)
Weight generation scheme         WeightScheme... mBecke (2022)
Basis function cutoff            BFCut       ... 1.0000e-11
Integration weight cutoff        WCut        ... 1.0000e-14
Partially contracted basis set               ... on
Rotationally invariant grid construction     ... off
Angular grids for H and He will be reduced by one unit
Diffuse basis detected: some atoms will have their outermost
                        angular grid increased by 1.

Total number of grid points                  ...     8098
Total number of batches                      ...       66
Average number of points per batch           ...      122
Average number of grid points per atom       ...     1350
UseSFitting                                  ... on

GRIDX 3
-------
General Integration Accuracy     IntAcc      ... 4.338
Radial Grid Type                 RadialGrid  ... OptM3 with GC (2021)
Angular Grid (max. ang.)         AngularGrid ... 3 (Lebedev-194)
Angular grid pruning method      GridPruning ... 4 (adaptive)
Weight generation scheme         WeightScheme... mBecke (2022)
Basis function cutoff            BFCut       ... 1.0000e-11
Integration weight cutoff        WCut        ... 1.0000e-14
Partially contracted basis set               ... on
Rotationally invariant grid construction     ... off
Angular grids for H and He will be reduced by one unit
Diffuse basis detected: some atoms will have their outermost
                        angular grid increased by 1.

Total number of grid points                  ...    19268
Total number of batches                      ...      154
Average number of points per batch           ...      125
Average number of grid points per atom       ...     3211
UseSFitting                                  ... on
Initializing property integral containers    ... done (  0.0 sec)

SHARK setup successfully completed in   0.8 seconds

Maximum memory used throughout the entire STARTUP-calculation: 80.3 MB


           ************************************************************
           *        Program running with 32 parallel MPI-processes    *
           *              working on a common directory               *
           ************************************************************
-------------------------------------------------------------------------------
                                 ORCA GUESS
                   Start orbitals & Density for SCF / CASSCF
-------------------------------------------------------------------------------

------------
SCF SETTINGS
------------
Hamiltonian:
 Density Functional     Method          .... DFT(GTOs)
 Exchange Functional    Exchange        .... WB97X-D3
 Correlation Functional Correlation     .... WB97X-D3
 Gradients option       PostSCFGGA      .... off
 Hybrid DFT is turned on
   Fraction HF Exchange ScalHFX         ....  0.195728
   Scaling of DF-GGA-X  ScalDFX         ....  0.000000
   Scaling of DF-GGA-C  ScalDFC         ....  1.000000
   Scaling of DF-LDA-C  ScalLDAC        ....  1.000000
   Perturbative correction              ....  0.000000
 Long-range corrected/Screened/Range-Separated Hybrid DFT is turned on
   Amount of maximum screened exact exchange              ....  0.804272
   Range separation parameter mu (erf(mu*r12)/r12)        ....  0.250000
 RI-approximation to the Coulomb term is turned on
   Number of AuxJ basis functions       .... 144
   RIJ-COSX (HFX calculated with COS-X)).... on


General Settings:
 Integral files         IntName         .... test
 Hartree-Fock type      HFTyp           .... UHF
 Total Charge           Charge          ....    0
 Multiplicity           Mult            ....    2
 Number of Electrons    NEL             ....   27
 Basis Dimension        Dim             ....  193
 Nuclear Repulsion      ENuc            ....     62.3807203730 Eh

Convergence Acceleration:
 AO-DIIS                CNVDIIS         .... on
   Start iteration      DIISMaxIt       ....    12
   Startup error        DIISStart       ....  0.200000
   # of expansion vecs  DIISMaxEq       ....     5
   Bias factor          DIISBfac        ....   1.050
   Max. coefficient     DIISMaxC        ....  10.000
 MO-DIIS                CNVKDIIS        .... off
 Trust-Rad. Augm. Hess. CNVTRAH         .... auto
   Auto Start mean grad. ratio tolernc. ....  1.125000
   Auto Start start iteration           ....     1
   Auto Start num. interpolation iter.  ....    10
   Max. Number of Micro iterations      ....    24
   Max. Number of Macro iterations      .... Maxiter - #DIIS iter
   Number of Davidson start vectors     ....     2
   Converg. threshold    (grad. norm)   ....   1.000e-05
   Grad. Scal. Fac. for Micro threshold ....   0.100
   Minimum threshold for Micro iter.    ....   1.000e-02
   NR start threshold (gradient norm)   ....   1.000e-04
   Initial trust radius                 ....   0.400
   Minimum AH scaling param. (alpha)    ....   1.000
   Maximum AH scaling param. (alpha)    .... 1000.000
   Quad. conv. algorithm                .... NR
   White noise on init. David. guess    .... on
   Maximum white noise                  ....   0.010
   Pseudo random numbers                .... off
   Inactive MOs                         .... canonical
   Orbital update algorithm             .... Taylor
   Preconditioner                       .... Diag
   Full preconditioner red. dimension   ....   250
 SOSCF                  CNVSOSCF        .... on
   Start iteration      SOSCFMaxIt      ....   150
   Startup grad/error   SOSCFStart      ....  0.003300
   Hessian update       SOSCFHessUp     .... L-BFGS
 Level Shifting         CNVShift        .... on
   Level shift para.    LevelShift      ....    0.2500
   Turn off err/grad.   ShiftErr        ....    0.0010
 Zerner damping         CNVZerner       .... off
 Static damping         CNVDamp         .... on
   Fraction old density DampFac         ....    0.7000
   Max. Damping (<1)    DampMax         ....    0.9800
   Min. Damping (>=0)   DampMin         ....    0.0000
   Turn off err/grad.   DampErr         ....    0.1000

SCF Procedure:
 Maximum # iterations   MaxIter         ....   125
 SCF integral mode      SCFMode         .... Direct
   Integral package                     .... SHARK and LIBINT hybrid scheme
 Reset frequency        DirectResetFreq ....    20
 Integral Threshold     Thresh          ....  2.500e-11 Eh
 Primitive CutOff       TCut            ....  2.500e-12 Eh

Convergence Tolerance:
 Convergence Check Mode ConvCheckMode   .... Total+1el-Energy
 Convergence forced     ConvForced      .... 0
 Energy Change          TolE            ....  1.000e-08 Eh
 1-El. energy change                    ....  1.000e-05 Eh
 Orbital Gradient       TolG            ....  1.000e-05
 Orbital Rotation angle TolX            ....  1.000e-05
 DIIS Error             TolErr          ....  5.000e-07

---------------------
INITIAL GUESS: MOREAD
---------------------
Guess MOs are being read from file: test.ges
Input Geometry matches current geometry (good)
Input basis set matches current basis set (good)
MOs were renormalized
MOs were reorthogonalized (Cholesky)
                      ------------------
                      INITIAL GUESS DONE (   0.0 sec)
                      ------------------
             **** ENERGY FILE WAS UPDATED (test.en.tmp) ****
Finished Guess after   1.1 sec
Maximum memory used throughout the entire GUESS-calculation: 11.7 MB


           ************************************************************
           *        Program running with 32 parallel MPI-processes    *
           *              working on a common directory               *
           ************************************************************

-------------------------------------------------------------------------------------------
                                      ORCA LEAN-SCF
                              memory conserving SCF solver
-------------------------------------------------------------------------------------------

----------------------------------------D-I-I-S--------------------------------------------
Iteration    Energy (Eh)           Delta-E    RMSDP     MaxDP     DIISErr   Damp  Time(sec)
-------------------------------------------------------------------------------------------
               ***  Starting incremental Fock matrix formation  ***
                              *** Initializing SOSCF ***
---------------------------------------S-O-S-C-F--------------------------------------
Iteration    Energy (Eh)           Delta-E    RMSDP     MaxDP     MaxGrad    Time(sec)
--------------------------------------------------------------------------------------
    1    -418.9316648597682615     0.00e+00  1.92e-06  1.56e-04  1.49e-05     0.3
               *** Restarting incremental Fock matrix formation ***
    2    -418.9316649296467858    -6.99e-08  1.37e-06  8.54e-05  3.17e-05     1.2
    3    -418.9316649590326733    -2.94e-08  1.79e-06  1.49e-04  1.82e-05     0.3
    4    -418.9316649736935005    -1.47e-08  4.48e-07  1.39e-05  1.90e-05     0.3
    5    -418.9316649737997977    -1.06e-10  2.33e-07  1.54e-05  4.21e-06     0.3
                 **** Energy Check signals convergence ****

               *****************************************************
               *                     SUCCESS                       *
               *           SCF CONVERGED AFTER   5 CYCLES          *
               *****************************************************

Recomputing exchange energy using gridx3       ... done (    0.390 sec)
Old exchange energy                            :     -9.214676506 Eh
New exchange energy                            :     -9.214661233 Eh
Exchange energy change after final integration :      0.000015273 Eh
Total energy after final integration           :   -418.931649701 Eh
             **** ENERGY FILE WAS UPDATED (test.en.tmp) ****

----------------
TOTAL SCF ENERGY
----------------

Total Energy       :       -418.93164970093903 Eh          -11399.70974 eV

Components:
Nuclear Repulsion  :         62.38072037300557 Eh            1697.46570 eV
Electronic Energy  :       -481.31238534680540 Eh          -13097.17585 eV
One Electron Energy:       -701.99901445731689 Eh          -19102.36433 eV
Two Electron Energy:        220.68662911051149 Eh            6005.18848 eV

Virial components:
Potential Energy   :       -836.29850491497496 Eh          -22756.83925 eV
Kinetic Energy     :        417.36685521403592 Eh           11357.12952 eV
Virial Ratio       :          2.00374920640524

DFT components:
N(Alpha)           :       13.999996811622 electrons
N(Beta)            :       13.000007568934 electrons
N(Total)           :       27.000004380557 electrons
E(XC)              :      -24.023448804790 Eh       

---------------
SCF CONVERGENCE
---------------

  Last Energy change         ...    1.0630e-10  Tolerance :   1.0000e-08
  Last MAX-Density change    ...    1.5406e-05  Tolerance :   1.0000e-07
  Last RMS-Density change    ...    2.3259e-07  Tolerance :   5.0000e-09
  Last DIIS Error            ...    4.6563e-05  Tolerance :   5.0000e-07
  Last Orbital Gradient      ...    4.2081e-06  Tolerance :   1.0000e-05
  Last Orbital Rotation      ...    9.5350e-06  Tolerance :   1.0000e-05


----------------------
UHF SPIN CONTAMINATION
----------------------

Warning: in a DFT calculation there is little theoretical justification to 
         calculate <S**2> as in Hartree-Fock theory. We will do it anyways
         but you should keep in mind that the values have only limited relevance

Expectation value of <S**2>     :     0.759778
Ideal value S*(S+1) for S=0.5   :     0.750000
Deviation                       :     0.009778

----------------
ORBITAL ENERGIES
----------------
                 SPIN UP ORBITALS
  NO   OCC          E(Eh)            E(eV) 
   0   1.0000     -77.231268     -2101.5696 
   1   1.0000     -19.228884      -523.2445 
   2   1.0000      -6.711853      -182.6388 
   3   1.0000      -4.864736      -132.3762 
   4   1.0000      -4.863215      -132.3348 
   5   1.0000      -4.863132      -132.3326 
   6   1.0000      -1.083109       -29.4729 
   7   1.0000      -0.787544       -21.4302 
   8   1.0000      -0.570542       -15.5252 
   9   1.0000      -0.521749       -14.1975 
  10   1.0000      -0.489827       -13.3289 
  11   1.0000      -0.478929       -13.0323 
  12   1.0000      -0.394399       -10.7321 
  13   1.0000      -0.307339        -8.3631 
  14   0.0000       0.025834         0.7030 
  15   0.0000       0.047141         1.2828 
  16   0.0000       0.054246         1.4761 
  17   0.0000       0.055029         1.4974 
  18   0.0000       0.074114         2.0167 
  19   0.0000       0.087996         2.3945 
  20   0.0000       0.112844         3.0706 
  21   0.0000       0.117947         3.2095 
  22   0.0000       0.125289         3.4093 
  23   0.0000       0.149836         4.0772 
  24   0.0000       0.164145         4.4666 

                 SPIN DOWN ORBITALS
  NO   OCC          E(Eh)            E(eV) 
   0   1.0000     -77.228808     -2101.5027 
   1   1.0000     -19.219373      -522.9857 
   2   1.0000      -6.709309      -182.5696 
   3   1.0000      -4.861810      -132.2966 
   4   1.0000      -4.861321      -132.2833 
   5   1.0000      -4.859169      -132.2247 
   6   1.0000      -1.053974       -28.6801 
   7   1.0000      -0.770238       -20.9592 
   8   1.0000      -0.554128       -15.0786 
   9   1.0000      -0.514949       -14.0125 
  10   1.0000      -0.468350       -12.7444 
  11   1.0000      -0.429976       -11.7002 
  12   1.0000      -0.381555       -10.3826 
  13   0.0000      -0.030549        -0.8313 
  14   0.0000       0.032743         0.8910 
  15   0.0000       0.054590         1.4855 
  16   0.0000       0.058965         1.6045 
  17   0.0000       0.061092         1.6624 
  18   0.0000       0.082614         2.2481 
  19   0.0000       0.102660         2.7935 
  20   0.0000       0.117761         3.2044 
  21   0.0000       0.121689         3.3113 
  22   0.0000       0.136917         3.7257 
  23   0.0000       0.154745         4.2108 
*Only the first 10 virtual orbitals were printed.

                    ********************************
                    * MULLIKEN POPULATION ANALYSIS *
                    ********************************

--------------------------------------------
MULLIKEN ATOMIC CHARGES AND SPIN POPULATIONS
--------------------------------------------
   0 P :    0.061096    0.547392
   1 H :    0.042929    0.151819
   2 H :    0.115365   -0.018899
   3 H :    0.130326   -0.017880
   4 O :   -0.551300    0.372094
   5 H :    0.201584   -0.034526
Sum of atomic charges         :    0.0000000
Sum of atomic spin populations:    1.0000000

-----------------------------------------------------
MULLIKEN REDUCED ORBITAL CHARGES AND SPIN POPULATIONS
-----------------------------------------------------
CHARGE
  0 P s       :     5.471904  s :     5.471904
      pz      :     3.130221  p :     9.082042
      px      :     3.008019
      py      :     2.943802
      dz2     :     0.073820  d :     0.363542
      dxz     :     0.041731
      dyz     :     0.042091
      dx2y2   :     0.161352
      dxy     :     0.044547
      f0      :     0.002139  f :     0.021416
      f+1     :     0.002621
      f-1     :     0.003447
      f+2     :     0.002064
      f-2     :     0.000656
      f+3     :     0.004966
      f-3     :     0.005524

  1 H s       :     0.936315  s :     0.936315
      pz      :     0.005556  p :     0.017611
      px      :    -0.002896
      py      :     0.014952
      dz2     :     0.000511  d :     0.003144
      dxz     :    -0.000066
      dyz     :     0.000805
      dx2y2   :     0.001345
      dxy     :     0.000550

  2 H s       :     0.868991  s :     0.868991
      pz      :    -0.002026  p :     0.012459
      px      :     0.009056
      py      :     0.005429
      dz2     :     0.000420  d :     0.003185
      dxz     :     0.001213
      dyz     :     0.000025
      dx2y2   :     0.001065
      dxy     :     0.000462

  3 H s       :     0.859049  s :     0.859049
      pz      :     0.003116  p :     0.007780
      px      :     0.002386
      py      :     0.002278
      dz2     :     0.001935  d :     0.002845
      dxz     :     0.000583
      dyz     :     0.000227
      dx2y2   :    -0.000424
      dxy     :     0.000524

  4 O s       :     3.914166  s :     3.914166
      pz      :     1.362889  p :     4.611578
      px      :     1.870972
      py      :     1.377717
      dz2     :     0.007667  d :     0.024053
      dxz     :     0.001888
      dyz     :     0.004841
      dx2y2   :     0.006112
      dxy     :     0.003545
      f0      :     0.000153  f :     0.001503
      f+1     :     0.000087
      f-1     :    -0.000064
      f+2     :     0.000410
      f-2     :     0.000004
      f+3     :     0.000490
      f-3     :     0.000424

  5 H s       :     0.668853  s :     0.668853
      pz      :     0.015037  p :     0.109076
      px      :     0.054882
      py      :     0.039157
      dz2     :     0.003924  d :     0.020488
      dxz     :     0.007518
      dyz     :     0.005915
      dx2y2   :     0.001906
      dxy     :     0.001224


SPIN
  0 P s       :     0.111160  s :     0.111160
      pz      :     0.233207  p :     0.365743
      px      :     0.083077
      py      :     0.049459
      dz2     :     0.019014  d :     0.069331
      dxz     :    -0.000055
      dyz     :     0.000554
      dx2y2   :     0.051057
      dxy     :    -0.001239
      f0      :     0.000257  f :     0.001158
      f+1     :    -0.000112
      f-1     :     0.000267
      f+2     :    -0.000351
      f-2     :     0.000115
      f+3     :     0.000974
      f-3     :     0.000008

  1 H s       :     0.139655  s :     0.139655
      pz      :     0.004162  p :     0.011155
      px      :     0.001102
      py      :     0.005892
      dz2     :     0.000317  d :     0.001009
      dxz     :     0.000040
      dyz     :     0.000145
      dx2y2   :     0.000237
      dxy     :     0.000271

  2 H s       :    -0.025146  s :    -0.025146
      pz      :     0.002400  p :     0.005798
      px      :     0.003409
      py      :    -0.000011
      dz2     :    -0.000117  d :     0.000449
      dxz     :     0.000192
      dyz     :    -0.000038
      dx2y2   :     0.000554
      dxy     :    -0.000142

  3 H s       :    -0.025605  s :    -0.025605
      pz      :     0.003612  p :     0.007137
      px      :     0.002015
      py      :     0.001511
      dz2     :     0.000567  d :     0.000588
      dxz     :     0.000031
      dyz     :     0.000011
      dx2y2   :     0.000039
      dxy     :    -0.000060

  4 O s       :     0.005480  s :     0.005480
      pz      :     0.054664  p :     0.371453
      px      :     0.004352
      py      :     0.312437
      dz2     :    -0.000130  d :    -0.004608
      dxz     :     0.000060
      dyz     :    -0.002523
      dx2y2   :    -0.001966
      dxy     :    -0.000049
      f0      :     0.000011  f :    -0.000231
      f+1     :    -0.000000
      f-1     :    -0.000066
      f+2     :    -0.000036
      f-2     :    -0.000009
      f+3     :     0.000017
      f-3     :    -0.000148

  5 H s       :    -0.032748  s :    -0.032748
      pz      :    -0.001496  p :    -0.002959
      px      :    -0.002013
      py      :     0.000550
      dz2     :    -0.000369  d :     0.001180
      dxz     :    -0.000229
      dyz     :     0.001695
      dx2y2   :     0.000024
      dxy     :     0.000059



                     *******************************
                     * LOEWDIN POPULATION ANALYSIS *
                     *******************************

-------------------------------------------
LOEWDIN ATOMIC CHARGES AND SPIN POPULATIONS
-------------------------------------------
   0 P :    1.145319    0.391910
   1 H :   -0.338615    0.163466
   2 H :   -0.300516    0.029774
   3 H :   -0.300212    0.020025
   4 O :    0.508446    0.359411
   5 H :   -0.714423    0.035415

----------------------------------------------------
LOEWDIN REDUCED ORBITAL CHARGES AND SPIN POPULATIONS
----------------------------------------------------
CHARGE
  0 P s       :     4.655401  s :     4.655401
      pz      :     2.802488  p :     8.215053
      px      :     2.737028
      py      :     2.675537
      dz2     :     0.129526  d :     0.717325
      dxz     :     0.074933
      dyz     :     0.104111
      dx2y2   :     0.332060
      dxy     :     0.076696
      f0      :     0.032598  f :     0.266902
      f+1     :     0.021891
      f-1     :     0.027908
      f+2     :     0.049021
      f-2     :     0.004239
      f+3     :     0.074270
      f-3     :     0.056974

  1 H s       :     0.800567  s :     0.800567
      pz      :     0.085973  p :     0.344293
      px      :     0.073673
      py      :     0.184647
      dz2     :     0.029185  d :     0.193754
      dxz     :     0.011078
      dyz     :     0.055108
      dx2y2   :     0.046737
      dxy     :     0.051646

  2 H s       :     0.792669  s :     0.792669
      pz      :     0.086441  p :     0.314924
      px      :     0.151652
      py      :     0.076830
      dz2     :     0.018519  d :     0.192923
      dxz     :     0.066688
      dyz     :     0.008918
      dx2y2   :     0.044600
      dxy     :     0.054198

  3 H s       :     0.788248  s :     0.788248
      pz      :     0.148359  p :     0.314376
      px      :     0.088245
      py      :     0.077772
      dz2     :     0.062780  d :     0.197588
      dxz     :     0.041940
      dyz     :     0.053766
      dx2y2   :     0.026860
      dxy     :     0.012242

  4 O s       :     3.193929  s :     3.193929
      pz      :     1.360431  p :     4.114759
      px      :     1.512913
      py      :     1.241415
      dz2     :     0.035109  d :     0.156970
      dxz     :     0.001749
      dyz     :     0.046146
      dx2y2   :     0.049412
      dxy     :     0.024555
      f0      :     0.005474  f :     0.025896
      f+1     :     0.000866
      f-1     :     0.005565
      f+2     :     0.004021
      f-2     :     0.000327
      f+3     :     0.003711
      f-3     :     0.005932

  5 H s       :     0.658444  s :     0.658444
      pz      :     0.279126  p :     0.651866
      px      :     0.195572
      py      :     0.177168
      dz2     :     0.143525  d :     0.404113
      dxz     :     0.112345
      dyz     :     0.098152
      dx2y2   :     0.030980
      dxy     :     0.019111


SPIN
  0 P s       :     0.056981  s :     0.056981
      pz      :     0.136386  p :     0.221798
      px      :     0.035994
      py      :     0.049417
      dz2     :     0.031955  d :     0.099331
      dxz     :    -0.003972
      dyz     :     0.003775
      dx2y2   :     0.069558
      dxy     :    -0.001985
      f0      :     0.002068  f :     0.013800
      f+1     :    -0.000633
      f-1     :     0.002774
      f+2     :     0.004561
      f-2     :     0.000106
      f+3     :     0.002493
      f-3     :     0.002430

  1 H s       :     0.070607  s :     0.070607
      pz      :     0.014097  p :     0.064157
      px      :     0.004717
      py      :     0.045343
      dz2     :     0.007730  d :     0.028701
      dxz     :     0.000659
      dyz     :     0.006362
      dx2y2   :     0.011104
      dxy     :     0.002846

  2 H s       :    -0.007086  s :    -0.007086
      pz      :     0.010892  p :     0.021607
      px      :     0.000849
      py      :     0.009866
      dz2     :     0.003674  d :     0.015253
      dxz     :     0.006862
      dyz     :     0.001127
      dx2y2   :     0.001129
      dxy     :     0.002461

  3 H s       :    -0.008822  s :    -0.008822
      pz      :     0.003933  p :     0.016507
      px      :     0.006193
      py      :     0.006380
      dz2     :     0.008847  d :     0.012340
      dxz     :     0.001687
      dyz     :     0.001893
      dx2y2   :    -0.000327
      dxy     :     0.000240

  4 O s       :     0.018503  s :     0.018503
      pz      :     0.047005  p :     0.318676
      px      :     0.007783
      py      :     0.263888
      dz2     :     0.000604  d :     0.019734
      dxz     :     0.000010
      dyz     :     0.011646
      dx2y2   :     0.006845
      dxy     :     0.000629
      f0      :     0.000590  f :     0.002498
      f+1     :    -0.000005
      f-1     :    -0.000166
      f+2     :     0.001032
      f-2     :     0.000060
      f+3     :     0.000126
      f-3     :     0.000860

  5 H s       :     0.003062  s :     0.003062
      pz      :    -0.001128  p :     0.009571
      px      :    -0.002830
      py      :     0.013529
      dz2     :     0.000954  d :     0.022781
      dxz     :     0.000167
      dyz     :     0.020357
      dx2y2   :     0.000881
      dxy     :     0.000422



                      *****************************
                      * MAYER POPULATION ANALYSIS *
                      *****************************

  NA   - Mulliken gross atomic population
  ZA   - Total nuclear charge
  QA   - Mulliken gross atomic charge
  VA   - Mayer's total valence
  BVA  - Mayer's bonded valence
  FA   - Mayer's free valence

  ATOM       NA         ZA         QA         VA         BVA        FA
  0 P     14.9389    15.0000     0.0611     3.9360     3.5598     0.3762
  1 H      0.9571     1.0000     0.0429     0.9656     0.9387     0.0269
  2 H      0.8846     1.0000     0.1154     0.9873     0.9867     0.0006
  3 H      0.8697     1.0000     0.1303     0.9643     0.9637     0.0006
  4 O      8.5513     8.0000    -0.5513     1.8456     1.7128     0.1328
  5 H      0.7984     1.0000     0.2016     1.0459     1.0451     0.0008

  Mayer bond orders larger than 0.100000
B(  0-P ,  1-H ) :   0.9354 B(  0-P ,  2-H ) :   0.9666 B(  0-P ,  3-H ) :   0.9629 
B(  0-P ,  4-O ) :   0.6579 B(  4-O ,  5-H ) :   1.0062 

-------
TIMINGS
-------

Total SCF time: 0 days 0 hours 0 min 4 sec 

Total time                  ....       4.190 sec
Sum of individual times     ....       4.170 sec  ( 99.5%)

SCF preparation             ....       1.396 sec  ( 33.3%)
Fock matrix formation       ....       2.582 sec  ( 61.6%)
  Startup                   ....       0.009 sec  (  0.4% of F)
  Split-RI-J                ....       0.072 sec  (  2.8% of F)
  Chain of spheres X        ....       1.394 sec  ( 54.0% of F)
  XC integration            ....       0.374 sec  ( 14.5% of F)
    XC Preparation          ....       0.000 sec  (  0.0% of XC)
    Basis function eval.    ....       0.023 sec  (  6.1% of XC)
    Density eval.           ....       0.039 sec  ( 10.5% of XC)
    XC-Functional eval.     ....       0.006 sec  (  1.7% of XC)
    XC-Potential eval.      ....       0.063 sec  ( 16.7% of XC)
Diagonalization             ....       0.000 sec  (  0.0%)
Density matrix formation    ....       0.017 sec  (  0.4%)
Total Energy calculation    ....       0.014 sec  (  0.3%)
Population analysis         ....       0.022 sec  (  0.5%)
Orbital Transformation      ....       0.025 sec  (  0.6%)
Orbital Orthonormalization  ....       0.000 sec  (  0.0%)
DIIS solution               ....       0.028 sec  (  0.7%)
SOSCF solution              ....       0.085 sec  (  2.0%)
Finished LeanSCF after   4.2 sec

Maximum memory used throughout the entire LEANSCF-calculation: 18.5 MB


           ************************************************************
           *        Program running with 32 parallel MPI-processes    *
           *              working on a common directory               *
           ************************************************************

------------------------------------------------------------------------------
                         ORCA PROPERTY INTEGRAL CALCULATIONS
------------------------------------------------------------------------------

GBWName                                   ... test.gbw
Number of atoms                           ...      6
Number of basis functions                 ...    212
Max core memory                           ...   2000 MB

Dipole integrals                          ... YES
Quadrupole integrals                      ...  NO
Linear momentum integrals                 ...  NO
Angular momentum integrals                ...  NO
Higher moments length integrals           ...  NO
Higher moments velocity integrals         ...  NO
Kinetic energy integrals                  ...  NO
GIAO right hand sides                     ...  NO
GIAO dipole derivative integrals          ...  NO
SOC integrals                             ...  NO
EPR diamagnetic integrals (GIAO)          ...  NO
EPR gauge integrals                       ...  NO
Field gradient integrals                  ...  NO (   0 nuclei)
Spin-dipole/Fermi contact integrals       ...  NO (   0 nuclei)
Contact density integrals                 ...  NO (   0 nuclei)
Nucleus-orbit integrals                   ...  NO (   0 nuclei)
Geometric perturbations                   ... YES (   6 nuclei)

Choice of electric origin   ... Center of mass
Position of electric origin ... (  2.3983, -2.5319,  3.6143) 
Choice of magnetic origin   ... GIAO
Position of magnetic origin ... (  0.0000,  0.0000,  0.0000) 

Calculating integrals                     ... Electric Dipole (Length)     done (  0.0 sec)
Calculating integrals                     ... Geometrical perturbation right hand sides

-----------------------
GEOMETRIC PERTURBATIONS (6 nuclei)
-----------------------

MaxCore                            ...   2000 MB
Number of batches                  ...      1

BATCH   0: Atoms    0 -    5 ( 18 perturbations)
   => H(core) and overlap derivative integrals     ... done (     0.1 sec)
   => Making and storing internal U-coefficients   ... done (     0.0 sec)
   => RI-J derivative integrals                    ... done (     0.3 sec)
   => RI-J response operators                      ... done (     0.1 sec)
   => Chain of spheres derivative integrals        ... done (     0.7 sec)
   => Chain of spheres response operator           ... done (     0.7 sec)
   => XC derivative integrals                      ... done (     2.1 sec)
   => XC response operators                        ... done (     0.4 sec)
   => Completing and storing right hand sides      ... done (     0.0 sec)
   => Total time for right hand sides =   4.4 sec

  geometrical perturbations done (  4.4 sec)

Property integrals calculated in   4.4 sec

Maximum memory used throughout the entire PROPINT-calculation: 165.6 MB


-------------------------------------------------------------------------------
                          DFT DISPERSION CORRECTION                            
                                                                               
                              DFTD3 V3.1  Rev 1                                
                              USING zero damping                               
-------------------------------------------------------------------------------
The omegaB97X-D3 functional is recognized. Fit by Chai et al.
Active option DFTDOPT                   ...         3   

molecular C6(AA) [au] = 500.430432 


            DFT-D V3
 parameters
 s6 scaling factor         :     1.0000 
 rs6 scaling factor        :     1.2810 
 s8 scaling factor         :     1.0000 
 rs8 scaling factor        :     1.0940 
 Damping factor alpha6     :    14.0000 
 Damping factor alpha8     :    16.0000 
 ad hoc parameters k1-k3   :    16.0000     1.3333    -4.0000 

 Edisp/kcal,au: -0.319312778872  -0.000508857249 
 E6   /kcal   :  -0.117076090 
 E8   /kcal   :  -0.202236689 
 % E8         :  63.334981224 

-------------------------   ----------------
Dispersion correction           -0.000508857
-------------------------   ----------------


-------------------------   --------------------
FINAL SINGLE POINT ENERGY      -418.932158558188
-------------------------   --------------------



           ************************************************************
           *        Program running with 32 parallel MPI-processes    *
           *              working on a common directory               *
           ************************************************************
------------------------------------------------------------------------------
                         ORCA SCF GRADIENT CALCULATION
------------------------------------------------------------------------------

Nuc. rep. gradient        (SHARK) ... done (  0.0 sec)
HCore & Overlap gradient  (SHARK) ... done (  0.0 sec)
Split-RIJ-J gradient      (SHARK) ... done (  0.2 sec)
COSX-gradient                     ... done (  1.4 sec)
XC gradient                       ... done (  0.2 sec)
Dispersion correction             ... done (  0.0 sec)

-------------------
DISPERSION GRADIENT
-------------------

   1   P   :    0.000001221   -0.000027971    0.000004439
   2   H   :   -0.000014053    0.000038194   -0.000028955
   3   H   :    0.000096493   -0.000033606    0.000001316
   4   H   :   -0.000059281   -0.000065237    0.000074006
   5   O   :   -0.000025662    0.000118390   -0.000062982
   6   H   :    0.000001282   -0.000029769    0.000012175

Difference to translation invariance:
           :    0.0000000000   -0.0000000000    0.0000000000

Difference to rotation invariance:
           :    0.0000000000    0.0000000000   -0.0000000000

Norm of the Dispersion gradient    ...    0.0002160205
RMS gradient                       ...    0.0000509165
MAX gradient                       ...    0.0001183904

------------------
CARTESIAN GRADIENT
------------------

   1   P   :   -0.002807951    0.030542106    0.002428132
   2   H   :    0.000052547    0.000000803   -0.000024130
   3   H   :    0.000002413    0.000018637    0.000041771
   4   H   :   -0.000026831   -0.000023890   -0.000023790
   5   O   :    0.002784204   -0.030547157   -0.002430599
   6   H   :   -0.000004382    0.000009501    0.000008617

Difference to translation invariance:
           :   -0.0000000000    0.0000000000   -0.0000000001

Difference to rotation invariance:
           :   -0.0001662585    0.0002457125   -0.0003405862

Norm of the Cartesian gradient     ...    0.0435131767
RMS gradient                       ...    0.0102561541
MAX gradient                       ...    0.0305471571

-------
TIMINGS
-------

Total SCF gradient time     ....        1.792 sec

Densities                   ....       0.001 sec  (  0.0%)
One electron gradient       ....       0.016 sec  (  0.9%)
RI-J Coulomb gradient       ....       0.167 sec  (  9.3%)
COSX gradient               ....       1.360 sec  ( 75.9%)
XC gradient                 ....       0.196 sec  ( 11.0%)

Maximum memory used throughout the entire SCFGRAD-calculation: 30.8 MB


           ************************************************************
           *        Program running with 32 parallel MPI-processes    *
           *              working on a common directory               *
           ************************************************************
------------------------------------------------------------------------------
                            ORCA SCF RESPONSE CALCULATION
------------------------------------------------------------------------------

GBWName                                 ... test.gbw
Number of atoms                         ...      6
Number of basis functions               ...    212
Max core memory                         ...   2000 MB

Electric field perturbation             ...  NO
Quadrupolar field perturbation          ...  NO
Magnetic field perturbation (no GIAO)   ...  NO
Magnetic field perturbation (with GIAO) ...  NO
Linear momentum (velocity) perturbation ...  NO
Spin-orbit coupling perturbation        ...  NO
Choice of electric origin               ... Center of mass
Position of electric origin             ...     2.398266    -2.531942     3.614322
Choice of magnetic origin               ... GIAO
Position of magnetic origin             ...     0.000000     0.000000     0.000000
Nuclear geometric perturbations         ... YES (  18 perturbations)
Nucleus-orbit perturbations             ...  NO (   0 perturbations)
Spin-dipole/Fermi contact perturbations ...  NO (   0 perturbations)

Total number of real perturbations      ...     18
Total number of imaginary perturbations ...      0
Total number of triplet perturbations   ...      0
Total number of SOC perturbations       ...      0

Using XC Grid                  ... (test.grid_cpscf.tmp) 
Recalculating density on grid  ... (test.grho_cpscf0.tmp) done
Calculating the xc-kernel      ... (test.fxc_cpscf0.tmp) done

                                **********************
                                * REAL PERTURBATIONS *
                                **********************



-------------------
SHARK CP-SCF DRIVER
-------------------

Dimension of the orbital basis          ...    193
Dimension of the CPSCF-problem          ...   4846
Number of operators                     ...      2
Max. number of iterations               ...    128
Convergence Tolerance                   ... 1.0e-04
Number of perturbations                 ...     18
Perturbation type                       ... REAL

----------------------------
POPLE LINEAR EQUATION SOLVER
----------------------------

  ITERATION   0:   ||err||_max =   1.3180e-01 (   0.9 sec   0/ 18 done)
  ITERATION   1:   ||err||_max =   8.5077e-02 (   0.9 sec   0/ 18 done)
  ITERATION   2:   ||err||_max =   3.3156e-02 (   0.9 sec   0/ 18 done)
  ITERATION   3:   ||err||_max =   1.1354e-02 (   0.9 sec   0/ 18 done)
  ITERATION   4:   ||err||_max =   4.2255e-03 (   0.9 sec   0/ 18 done)
  ITERATION   5:   ||err||_max =   1.8374e-03 (   0.9 sec   0/ 18 done)
  ITERATION   6:   ||err||_max =   8.5189e-04 (   0.9 sec   1/ 18 done)
  ITERATION   7:   ||err||_max =   2.9392e-04 (   0.9 sec   8/ 18 done)
  ITERATION   8:   ||err||_max =   1.3541e-04 (   0.6 sec  17/ 18 done)
  ITERATION   9:   ||err||_max =   4.7145e-05 (   0.2 sec  18/ 18 done)

CP-SCF equations solved in   8.1 sec
Response densities calculated in   0.0 sec

Maximum memory used throughout the entire SCFRESP-calculation: 167.5 MB


           ************************************************************
           *        Program running with 32 parallel MPI-processes    *
           *              working on a common directory               *
           ************************************************************

------------------------------------------------------------------------------
                              ORCA PROPERTY CALCULATIONS
------------------------------------------------------------------------------

GBWName                                 ... test.gbw
Number of atoms                         ...      6
Number of basis functions               ...    212
Max core memory                         ...   2000 MB

Electric properties:
Dipole moment                           ... YES
Quadrupole moment                       ...  NO
Static polarizability (Dipole/Dipole)   ...  NO
Static polarizability (Dipole/Quad.)    ...  NO
Static polarizability (Quad./Quad.)     ...  NO
Static polarizability (Velocity)        ...  NO

Atomic electric properties:
Dipole moment                           ...  NO
Quadrupole moment                       ...  NO
Static polarizability                   ...  NO

Choice of electric origin               ... Center of mass
Position of electric origin             ...     2.398266    -2.531942     3.614322

General magnetic properties:
Magnetizability                         ...  NO

EPR properties:
g-Tensor (aka g-matrix)                 ...  NO
Zero-Field splitting spin-orbit         ...  NO
Zero-field splitting spin-spin          ...  NO
Hyperfine couplings                     ...  NO (   0 nuclei)
Quadrupole couplings                    ...  NO (   0 nuclei)
Contact density                         ...  NO (   0 nuclei)

NMR properties:
Chemical shifts                         ...  NO (   0 nuclei)
Spin-rotation constants                 ...  NO (   0 nuclei)
Spin-spin couplings                     ...  NO (   0 nuclei,    0 pairs)

Choice of magnetic origin               ... GIAO
Position of magnetic origin             ...     0.000000     0.000000     0.000000

Properties with geometric perturbations:
SCF Hessian                             ... YES
IR spectrum                             ... YES
VCD spectrum                            ...  NO
X-ray spectroscopy properties:
SCF XES/XAS/RIXS spectra                ...  NO


-------------
DIPOLE MOMENT
-------------

Method             : SCF
Type of density    : Electron Density
Multiplicity       :   2
Irrep              :   0
Energy             :  -418.9316497009390332 Eh
Relativity type    : 
Basis              : AO
                                X                 Y                 Z
Electronic contribution:      0.391526861      -0.477651874       0.606172917
Nuclear contribution   :     -0.600636949       1.132189473      -0.245374565
                        -----------------------------------------
Total Dipole Moment    :     -0.209110088       0.654537599       0.360798351
                        -----------------------------------------
Magnitude (a.u.)       :      0.776094033
Magnitude (Debye)      :      1.972674260



--------------------
Rotational spectrum 
--------------------
 
Rotational constants in cm-1:             3.470819             0.326776             0.322217 
Rotational constants in MHz :        104052.537732          9796.507080          9659.836878 

Dipole components along the rotational axes: 
x,y,z [a.u.] :    -0.683813    -0.359177     0.075589 
x,y,z [Debye]:    -1.738115    -0.912954     0.192132 

 

Dipole moment calculation done in   0.0 sec 

-----------
SCF HESSIAN
-----------

Occupied/Occupied contributions to the Hessian:
   => Occupied/Occupied contributions              ... done (  0.0 sec)
Perturbed density contributions to the Hessian:
   => Perturbed density contributions              ... done (  0.0 sec)
Explicit contributions to the Hessian:
   => Nuclear repulsion Hessian                    ... done (  0.0 sec)
   => HCore and overlap Hessian                    ... done (  0.1 sec)
   => RI-J Hessian                                 ... done (  0.3 sec)
   => COSX Hessian                                 ... done ( 13.0 sec)
   => XC-Hessian                                   ... done (  0.7 sec)
   => Van der Waals-Hessian                        ... done (  0.1 sec)
   => Explicit contributions done
Dipole derivatives                                 ... done (  0.0 sec)
Mass weighting the Hessian           ... done
Calculating normal modes             ... done
Scaling frequencies                  ... done

-----------------------
VIBRATIONAL FREQUENCIES
-----------------------

Scaling factor for frequencies =  1.000000000  (already applied!)

     0:       0.00 cm**-1
     1:       0.00 cm**-1
     2:       0.00 cm**-1
     3:       0.00 cm**-1
     4:       0.00 cm**-1
     5:       0.00 cm**-1
     6:      90.96 cm**-1
     7:     198.79 cm**-1
     8:     489.46 cm**-1
     9:     582.69 cm**-1
    10:     922.10 cm**-1
    11:     984.34 cm**-1
    12:    1138.51 cm**-1
    13:    1166.39 cm**-1
    14:    2205.47 cm**-1
    15:    2519.99 cm**-1
    16:    2546.93 cm**-1
    17:    3860.49 cm**-1


------------
NORMAL MODES
------------

These modes are the Cartesian displacements weighted by the diagonal matrix
M(i,i)=1/sqrt(m[i]) where m[i] is the mass of the displaced atom
Thus, these vectors are normalized but *not* orthogonal

                  0          1          2          3          4          5    
      0       0.000000   0.000000   0.000000   0.000000   0.000000   0.000000
      1       0.000000   0.000000   0.000000   0.000000   0.000000   0.000000
      2       0.000000   0.000000   0.000000   0.000000   0.000000   0.000000
      3       0.000000   0.000000   0.000000   0.000000   0.000000   0.000000
      4       0.000000   0.000000   0.000000   0.000000   0.000000   0.000000
      5       0.000000   0.000000   0.000000   0.000000   0.000000   0.000000
      6       0.000000   0.000000   0.000000   0.000000   0.000000   0.000000
      7       0.000000   0.000000   0.000000   0.000000   0.000000   0.000000
      8       0.000000   0.000000   0.000000   0.000000   0.000000   0.000000
      9       0.000000   0.000000   0.000000   0.000000   0.000000   0.000000
     10       0.000000   0.000000   0.000000   0.000000   0.000000   0.000000
     11       0.000000   0.000000   0.000000   0.000000   0.000000   0.000000
     12       0.000000   0.000000   0.000000   0.000000   0.000000   0.000000
     13       0.000000   0.000000   0.000000   0.000000   0.000000   0.000000
     14       0.000000   0.000000   0.000000   0.000000   0.000000   0.000000
     15       0.000000   0.000000   0.000000   0.000000   0.000000   0.000000
     16       0.000000   0.000000   0.000000   0.000000   0.000000   0.000000
     17       0.000000   0.000000   0.000000   0.000000   0.000000   0.000000
                  6          7          8          9         10         11    
      0      -0.023522  -0.007524  -0.056091   0.002595   0.001074  -0.018321
      1       0.283531   0.022389  -0.012845  -0.019540   0.009918   0.023325
      2       0.014462   0.002377   0.002947  -0.046955  -0.034672  -0.030254
      3      -0.080826   0.165031   0.664176   0.038375  -0.007200   0.151419
      4       0.167282   0.027973  -0.079794  -0.251011  -0.094628  -0.108327
      5       0.133948  -0.086490   0.012440   0.663586   0.280125   0.220207
      6       0.042611  -0.082386   0.014063  -0.022160  -0.028723  -0.182420
      7       0.194705   0.075521   0.632576   0.211197   0.046326  -0.324834
      8      -0.229689   0.255664  -0.131287   0.077855   0.092422   0.540405
      9       0.027352  -0.236493   0.091989  -0.116130   0.032716   0.558382
     10       0.275816  -0.106938  -0.277451   0.543491   0.064246  -0.288650
     11       0.034852  -0.138285   0.047868  -0.035161  -0.002819   0.261078
     12       0.013743   0.079237   0.047320   0.008200  -0.008483   0.002265
     13      -0.571276  -0.036874   0.006822  -0.013413   0.036058  -0.008320
     14      -0.033591   0.002515  -0.002469   0.037121   0.061744  -0.008613
     15       0.515526  -0.872585   0.202264  -0.109973   0.104845  -0.000353
     16      -0.282900  -0.099257   0.011096   0.309638  -0.893025   0.137130
     17       0.149658  -0.143856   0.019606   0.147394  -0.284312   0.044679
                 12         13         14         15         16         17    
      0       0.004203  -0.018335  -0.003072  -0.024769   0.024052   0.000030
      1      -0.025907  -0.008903  -0.026478   0.001782   0.003101  -0.000107
      2      -0.008205   0.003639  -0.010455  -0.016580  -0.023829  -0.000269
      3      -0.371672   0.537239   0.090621  -0.005595   0.004924  -0.000006
      4       0.149966   0.072705   0.939659   0.014972  -0.000941   0.000629
      5      -0.371479  -0.359184   0.326582  -0.003285  -0.007801   0.002053
      6      -0.093746  -0.020758  -0.019969   0.916510  -0.282942   0.001281
      7       0.571892  -0.338902  -0.016667  -0.034104   0.011900  -0.001841
      8       0.410338  -0.016542   0.002827   0.256514  -0.090597   0.000322
      9       0.275361   0.110085   0.011581  -0.155792  -0.457604  -0.000487
     10       0.293286   0.646444  -0.022304  -0.031914  -0.102452  -0.002972
     11       0.183315   0.150547  -0.002511   0.258035   0.830928   0.003479
     12       0.003539  -0.002934   0.000770   0.000494  -0.000326   0.007425
     13      -0.012066  -0.001280  -0.005502  -0.000442  -0.000387   0.023011
     14       0.001992   0.008677  -0.000366  -0.000014   0.000108  -0.058062
     15       0.004754  -0.016585  -0.000060  -0.001865   0.001710  -0.119561
     16      -0.027549  -0.086371   0.000254   0.003292   0.002339  -0.357772
     17      -0.001671  -0.024354   0.000190  -0.001573  -0.002031   0.923969


-----------
IR SPECTRUM
-----------

 Mode   freq       eps      Int      T**2         TX        TY        TZ
       cm**-1   L/(mol*cm) km/mol    a.u.
----------------------------------------------------------------------------
  6:     90.96   0.010517   53.15  0.036082  ( 0.033824  0.185888  0.019583)
  7:    198.79   0.015935   80.53  0.025016  (-0.156350  0.011312 -0.021032)
  8:    489.46   0.000085    0.43  0.000054  ( 0.007011 -0.000449  0.002255)
  9:    582.69   0.003191   16.12  0.001709  (-0.008784  0.037625 -0.014695)
 10:    922.10   0.008398   42.44  0.002842  ( 0.005337 -0.048516 -0.021443)
 11:    984.34   0.011588   58.56  0.003674  (-0.013713  0.057479 -0.013489)
 12:   1138.51   0.009928   50.17  0.002721  ( 0.005840 -0.051277 -0.007598)
 13:   1166.39   0.002897   14.64  0.000775  (-0.019045 -0.020226  0.001840)
 14:   2205.47   0.021997  111.16  0.003112  (-0.004774 -0.053207 -0.016082)
 15:   2519.99   0.003342   16.89  0.000414  (-0.017014  0.007868 -0.007906)
 16:   2546.93   0.003024   15.28  0.000370  ( 0.014431  0.004648 -0.011857)
 17:   3860.49   0.009404   47.52  0.000760  (-0.000306 -0.023702  0.014081)

* The epsilon (eps) is given for a Dirac delta lineshape.
** The dipole moment derivative (T) already includes vibrational overlap.

The first frequency considered to be a vibration is 6
The total number of vibrations considered is 12


--------------------------
THERMOCHEMISTRY AT 298.15K
--------------------------

Temperature         ...   298.15 K
Pressure            ...     1.00 atm
Total Mass          ...    51.01 AMU
Quasi RRHO          ...     True
Cut-Off Frequency   ...     1.00 cm^-1

Throughout the following assumptions are being made:
  (1) The electronic state is orbitally nondegenerate
      but the spin degeneracy is treated
  (2) There are no thermally accessible electronically excited states
  (3) Hindered rotations indicated by low frequency modes are not
      treated as such but are treated as vibrations and this may
      cause some error
  (4) All equations used are the standard statistical mechanics
      equations for an ideal gas
  (5) All vibrations are strictly harmonic

freq.      90.96  E(vib)   ...       0.47 
freq.     198.79  E(vib)   ...       0.35 
freq.     489.46  E(vib)   ...       0.15 
freq.     582.69  E(vib)   ...       0.11 
freq.     922.10  E(vib)   ...       0.03 
freq.     984.34  E(vib)   ...       0.02 
freq.    1138.51  E(vib)   ...       0.01 
freq.    1166.39  E(vib)   ...       0.01 
freq.    2205.47  E(vib)   ...       0.00 
freq.    2519.99  E(vib)   ...       0.00 
freq.    2546.93  E(vib)   ...       0.00 
freq.    3860.49  E(vib)   ...       0.00 

------------
INNER ENERGY
------------

The inner energy is: U= E(el) + E(ZPE) + E(vib) + E(rot) + E(trans)
    E(el)   - is the total energy from the electronic structure calculation
              = E(kin-el) + E(nuc-el) + E(el-el) + E(nuc-nuc)
    E(ZPE)  - the the zero temperature vibrational energy from the frequency calculation
    E(vib)  - the the finite temperature correction to E(ZPE) due to population
              of excited vibrational states
    E(rot)  - is the rotational thermal energy
    E(trans)- is the translational thermal energy

Summary of contributions to the inner energy U:
Electronic energy                ...   -418.93215856 Eh
Zero point energy                ...      0.03805937 Eh      23.88 kcal/mol
Thermal vibrational correction   ...      0.00184629 Eh       1.16 kcal/mol
Thermal rotational correction    ...      0.00141627 Eh       0.89 kcal/mol
Thermal translational correction ...      0.00141627 Eh       0.89 kcal/mol
-----------------------------------------------------------------------
Total thermal energy                   -418.88942036 Eh


Summary of corrections to the electronic energy:
(perhaps to be used in another calculation)
Total thermal correction                  0.00467883 Eh       2.94 kcal/mol
Non-thermal (ZPE) correction              0.03805937 Eh      23.88 kcal/mol
-----------------------------------------------------------------------
Total correction                          0.04273820 Eh      26.82 kcal/mol


--------
ENTHALPY
--------

The enthalpy is H = U + kB*T
                kB is Boltzmann's constant
Total thermal energy              ...   -418.88942036 Eh 
Thermal Enthalpy correction       ...      0.00094421 Eh       0.59 kcal/mol
-----------------------------------------------------------------------
Total Enthalpy                    ...   -418.88847615 Eh


Note: Only C1 symmetry has been detected, increase convergence thresholds 
      if your molecule has a higher symmetry. Symmetry factor of 1.0 is   
      used for the rotational entropy correction. 
 

Note: Rotational entropy computed according to Herzberg 
Infrared and Raman Spectra, Chapter V,1, Van Nostrand Reinhold, 1945 
Point Group:  C1, Symmetry Number:   1  
Rotational constants in cm-1:     3.470819     0.326776     0.322217 

Vibrational entropy computed according to the QRRHO of S. Grimme
Chem.Eur.J. 2012 18 9955 using a reference frequency of 100.0 cm-1


-------
ENTROPY
-------

The entropy contributions are T*S = T*(S(el)+S(vib)+S(rot)+S(trans))
     S(el)   - electronic entropy
     S(vib)  - vibrational entropy
     S(rot)  - rotational entropy
     S(trans)- translational entropy
The entropies will be listed as multiplied by the temperature to get
units of energy

Electronic entropy                ...      0.00065446 Eh      0.41 kcal/mol
Vibrational entropy               ...      0.00326364 Eh      2.05 kcal/mol
Rotational entropy                ...      0.00998602 Eh      6.27 kcal/mol
Translational entropy             ...      0.01791774 Eh     11.24 kcal/mol
-----------------------------------------------------------------------
Final entropy term                ...      0.03182187 Eh     19.97 kcal/mol

In case the symmetry of your molecule has not been determined correctly
or in case you have a reason to use a different symmetry number we print 
out the resulting rotational entropy values for sn=1,12:

 non-linear molecules -----------------------------------
|  sn= 1 | S(rot)=       0.00998602 Eh      6.27 kcal/mol|
|  sn= 2 | S(rot)=       0.00933157 Eh      5.86 kcal/mol|
|  sn= 3 | S(rot)=       0.00894874 Eh      5.62 kcal/mol|
|  sn= 4 | S(rot)=       0.00867711 Eh      5.44 kcal/mol|
|  sn= 5 | S(rot)=       0.00846642 Eh      5.31 kcal/mol|
|  sn= 6 | S(rot)=       0.00829428 Eh      5.20 kcal/mol|
|  sn= 7 | S(rot)=       0.00814873 Eh      5.11 kcal/mol|
|  sn= 8 | S(rot)=       0.00802266 Eh      5.03 kcal/mol|
|  sn= 9 | S(rot)=       0.00791145 Eh      4.96 kcal/mol|
|  sn=10 | S(rot)=       0.00781197 Eh      4.90 kcal/mol|
|  sn=11 | S(rot)=       0.00772198 Eh      4.85 kcal/mol|
|  sn=12 | S(rot)=       0.00763982 Eh      4.79 kcal/mol|
 linear molecules ---------------------------------------
|  Dinfh | S(rot)=       0.00639512 Eh      4.01 kcal/mol|
|  Cinfv | S(rot)=       0.00704957 Eh      4.42 kcal/mol|
 --------------------------------------------------------


-------------------
GIBBS FREE ENERGY
-------------------

The Gibbs free energy is G = H - T*S

Total enthalpy                    ...   -418.88847615 Eh 
Total entropy correction          ...     -0.03182187 Eh    -19.97 kcal/mol
-----------------------------------------------------------------------
Final Gibbs free energy         ...   -418.92029802 Eh

For completeness - the Gibbs free energy minus the electronic energy
G-E(el)                           ...      0.01186054 Eh      7.44 kcal/mol


Maximum memory used throughout the entire PROP-calculation: 48.6 MB

--------------------------------
SUGGESTED CITATIONS FOR THIS RUN
--------------------------------

Below you find a list of papers that are relevant to this ORCA run
We neither can nor want to force you to cite these papers, but we appreciate if you do
You receive ORCA, which is the product of decades of hard work by many enthusiastic individuals, for free
The only thing we kindly ask in return is that you cite our papers,
We deeply appreciate it, if you show your appreciation for ORCA by not just citing the generic ORCA reference.

Please note that relegating all ORCA citations to the supporting information does *not* help us.
SI sections are not indexed - citations you put there will not count into any citation statistics
But we need these citations in order to attract the funding resources that allow us to do what we are doing

Therefore, if you are a happy ORCA user, please consider citing a few of the papers listed below in the main body of your paper

In addition to the list printed below, the program has created the file test.bibtex that contains the list in bibtex format
You can import this file easily into all common literature databanks and citation aid programs


List of essential papers. We consider these as the minimum necessary citations

  1. Neese,F.
     Software update: the ORCA program system, version 5.0
     WIRES Comput. Molec. Sci., 2022 12(1)e1606
     doi.org/10.1002/wcms.1606

List of papers to cite with high priority. The work reported in these papers was absolutely
necessary for this run to complete.
Our perspective: the developers of density functionals and basis sets usually get cited in chemistry papers
Good! But without the algorithms to do something with them, the functionals or basis sets would not do anything.
Hence, in our opinion, the algorithm design and method developments papers are equally worthy of getting cited

  1. Neese,F.
     An improvement of the resolution of the identity approximation for the formation of the Coulomb matrix
     J. Comp. Chem., 2003 24(14)1740-1747
     doi.org/10.1002/jcc.10318
  2. Neese,F.; Wennmohs,F.; Hansen,A.; Becker,U.
     Efficient, approximate and parallel Hartree-Fock and hybrid DFT calculations. A 'chain-of-spheres' algorithm for the Hartree-Fock exchange
     Chem. Phys., 2009 356(1-3)98-109
     doi.org/10.1016/j.chemphys.2008.10.036
  3. Bykov,D.; Petrenko,T.; Izsak,R.; Kossmann,S.; Becker,U.; Valeev,E.; Neese,F.
     Efficient implementation of the analytic second derivatives of Hartree-Fock and hybrid DFT energies: a detailed analysis of different approximations
     Molec. Phys., 2015 113 1961-1977
     doi.org/10.1080/00268976.2015.1025114
  4. Helmich-Paris,B.; de Souza,B.; Neese,F.; Izsák,R.
     An improved chain of spheres for exchange algorithm
     J. Chem. Phys., 2021 155 104109
     doi.org/doi: 10.1063/5.0058766.
  5. Neese,F.
     The SHARK Integral Generation and Digestion System
     J. Comp. Chem., 2022  1-16
     doi.org/10.1002/jcc.26942
  6. Grimme,S.; Antony,J.; Ehrlich,S.; Krieg,H.
     A consistent and accurate ab initio parametrization of density functional dispersion correction (DFT-D) for the 94 elements H-Pu
     J. Chem. Phys., 2010 132 154104
     doi.org/10.1063/1.3382344

List of suggested additional citations. These are papers that are important in the 'surrounding' of 
of this run, or papers that preceded the highly important papers. If you like your results we are grateful for a citation.

  1. Izsak,R.; Neese,F.
     An overlap fitted chain of spheres exchange method
     J. Chem. Phys., 2011 135 144105
     doi.org/10.1063/1.3646921
  2. Izsak,R.; Hansen,A.; Neese,F.
     The resolution of identity and chain of spheres approximations for the LPNO-CCSD singles Fock term
     Molec. Phys., 2012 110 2413-2417
     doi.org/10.1080/00268976.2012.687466
  3. Neese,F.
     The ORCA program system
     WIRES Comput. Molec. Sci., 2012 2(1)73-78
     doi.org/10.1002/wcms.81
  4. Izsak,R.; Neese,F.; Klopper,W.
     Robust fitting techniques in the chain of spheres approximation to the Fock exchange: The role of the complementary space
     J. Chem. Phys., 2013 139 
     doi.org/10.1063/1.4819264
  5. Neese,F.
     Software update: the ORCA program system, version 4.0
     WIRES Comput. Molec. Sci., 2018 8(1)1-6
     doi.org/10.1002/wcms.1327
  6. Neese,F.; Wennmohs,F.; Becker,U.; Riplinger,C.
     The ORCA quantum chemistry program package
     J. Chem. Phys., 2020 152 Art. No. L224108
     doi.org/10.1063/5.0004608

List of optional additional citations

  1. Neese,F.
     Approximate second-order SCF convergence for spin unrestricted wavefunctions
     Chem. Phys. Lett., 2000 325(1-3)93-98
     doi.org/10.1016/s0009-2614(00)00662-x

Timings for individual modules:

Sum of individual times          ...       42.920 sec (=   0.715 min)
Startup calculation              ...        2.178 sec (=   0.036 min)   5.1 %
SCF iterations                   ...        6.193 sec (=   0.103 min)  14.4 %
Property integrals               ...        5.833 sec (=   0.097 min)  13.6 %
SCF Response                     ...        9.654 sec (=   0.161 min)  22.5 %
Property calculations            ...       15.584 sec (=   0.260 min)  36.3 %
SCF Gradient evaluation          ...        3.479 sec (=   0.058 min)   8.1 %
                             ****ORCA TERMINATED NORMALLY****
TOTAL RUN TIME: 0 days 0 hours 0 minutes 44 seconds 341 msec
